 Entering Gaussian System, Link 0=g16
 Initial command:
 /ssoft/spack/external/gaussian/g16-C.01/avx2/g16/l1.exe "/tmp/gallarat/11904021.slurm/Gau-348558.inp" -scrdir="/tmp/gallarat/11904021.slurm/"
 Entering Link 1 = /ssoft/spack/external/gaussian/g16-C.01/avx2/g16/l1.exe PID=    348559.
  
 Copyright (c) 1988-2019, Gaussian, Inc.  All Rights Reserved.
  
 This is part of the Gaussian(R) 16 program.  It is based on
 the Gaussian(R) 09 system (copyright 2009, Gaussian, Inc.),
 the Gaussian(R) 03 system (copyright 2003, Gaussian, Inc.),
 the Gaussian(R) 98 system (copyright 1998, Gaussian, Inc.),
 the Gaussian(R) 94 system (copyright 1995, Gaussian, Inc.),
 the Gaussian 92(TM) system (copyright 1992, Gaussian, Inc.),
 the Gaussian 90(TM) system (copyright 1990, Gaussian, Inc.),
 the Gaussian 88(TM) system (copyright 1988, Gaussian, Inc.),
 the Gaussian 86(TM) system (copyright 1986, Carnegie Mellon
 University), and the Gaussian 82(TM) system (copyright 1983,
 Carnegie Mellon University). Gaussian is a federally registered
 trademark of Gaussian, Inc.
  
 This software contains proprietary and confidential information,
 including trade secrets, belonging to Gaussian, Inc.
  
 This software is provided under written license and may be
 used, copied, transmitted, or stored only in accord with that
 written license.
  
 The following legend is applicable only to US Government
 contracts under FAR:
  
                    RESTRICTED RIGHTS LEGEND
  
 Use, reproduction and disclosure by the US Government is
 subject to restrictions as set forth in subparagraphs (a)
 and (c) of the Commercial Computer Software - Restricted
 Rights clause in FAR 52.227-19.
  
 Gaussian, Inc.
 340 Quinnipiac St., Bldg. 40, Wallingford CT 06492
  
  
 ---------------------------------------------------------------
 Warning -- This program may not be used in any manner that
 competes with the business of Gaussian, Inc. or will provide
 assistance to any competitor of Gaussian, Inc.  The licensee
 of this program is prohibited from giving any competitor of
 Gaussian, Inc. access to this program.  By using this program,
 the user acknowledges that Gaussian, Inc. is engaged in the
 business of creating and licensing software in the field of
 computational chemistry and represents and warrants to the
 licensee that it is not a competitor of Gaussian, Inc. and that
 it will not use this program in any manner prohibited above.
 ---------------------------------------------------------------
  

 Cite this work as:
 Gaussian 16, Revision C.01,
 M. J. Frisch, G. W. Trucks, H. B. Schlegel, G. E. Scuseria, 
 M. A. Robb, J. R. Cheeseman, G. Scalmani, V. Barone, 
 G. A. Petersson, H. Nakatsuji, X. Li, M. Caricato, A. V. Marenich, 
 J. Bloino, B. G. Janesko, R. Gomperts, B. Mennucci, H. P. Hratchian, 
 J. V. Ortiz, A. F. Izmaylov, J. L. Sonnenberg, D. Williams-Young, 
 F. Ding, F. Lipparini, F. Egidi, J. Goings, B. Peng, A. Petrone, 
 T. Henderson, D. Ranasinghe, V. G. Zakrzewski, J. Gao, N. Rega, 
 G. Zheng, W. Liang, M. Hada, M. Ehara, K. Toyota, R. Fukuda, 
 J. Hasegawa, M. Ishida, T. Nakajima, Y. Honda, O. Kitao, H. Nakai, 
 T. Vreven, K. Throssell, J. A. Montgomery, Jr., J. E. Peralta, 
 F. Ogliaro, M. J. Bearpark, J. J. Heyd, E. N. Brothers, K. N. Kudin, 
 V. N. Staroverov, T. A. Keith, R. Kobayashi, J. Normand, 
 K. Raghavachari, A. P. Rendell, J. C. Burant, S. S. Iyengar, 
 J. Tomasi, M. Cossi, J. M. Millam, M. Klene, C. Adamo, R. Cammi, 
 J. W. Ochterski, R. L. Martin, K. Morokuma, O. Farkas, 
 J. B. Foresman, and D. J. Fox, Gaussian, Inc., Wallingford CT, 2019.
 
 ******************************************
 Gaussian 16:  ES64L-G16RevC.01  3-Jul-2019
                 9-Nov-2023 
 ******************************************
 %nprocs=36
 Will use up to   36 processors via shared memory.
 %mem=36000MB
 %chk=Cat1_TSOA_CfA.chk
 ----------------------------------------------------------------------
 #p pbe1pbe/gen opt=(ts,NoEigenTest,calcfc,AddRedun,nolinear,maxstep=5)
  empiricaldispersion=gd3bj pseudo=read freq=noraman
 ----------------------------------------------------------------------
 1/5=1,8=5,10=4,11=1,18=120,19=1,26=3,38=1/1,3;
 2/9=110,12=2,17=6,18=5,40=1/2;
 3/5=7,11=2,16=1,17=8,25=1,30=1,71=2,74=-13,124=41,140=1/1,2,3;
 4//1;
 5/5=2,38=5/2;
 8/6=4,10=90,11=11/1;
 11/6=1,8=1,9=11,15=111,16=1/1,2,10;
 10/6=1,13=1/2;
 6/7=2,8=2,9=2,10=2,28=1/1;
 7/10=1,25=1/1,2,3,16;
 1/5=1,8=5,10=4,11=1,18=20,19=1,26=3/3(2);
 2/9=110/2;
 99//99;
 2/9=110/2;
 3/5=7,6=1,11=2,16=1,17=8,25=1,30=1,71=1,74=-13,82=7,124=41/1,2,3;
 4/5=5,16=3,69=1/1;
 5/5=2,38=5/2;
 7//1,2,3,16;
 1/5=1,8=5,11=1,18=20,19=1,26=3/3(-5);
 2/9=110/2;
 6/7=2,8=2,9=2,10=2,19=2,28=1/1;
 99/9=1/99;
 Leave Link    1 at Thu Nov  9 17:08:59 2023, MaxMem=  4718592000 cpu:               3.7 elap:               0.1
 (Enter /ssoft/spack/external/gaussian/g16-C.01/avx2/g16/l101.exe)
 -------------
 Cat1_TSOA_CfA
 -------------
 Symbolic Z-matrix:
 Charge =  0 Multiplicity = 2
 C                    -0.29666  -1.3006    0.81316 
 C                    -0.94888  -0.69008   1.90302 
 C                    -2.29728  -0.92476   2.12599 
 C                    -3.03785  -1.80471   1.31863 
 C                    -2.34905  -2.49592   0.31542 
 C                    -0.99438  -2.27971   0.08049 
 H                    -0.40112  -0.00136   2.54903 
 H                    -2.79661  -0.40552   2.94991 
 C                    -4.51156  -1.98724   1.52432 
 H                    -4.86259  -2.94512   1.11411 
 H                    -4.78152  -1.95363   2.59061 
 H                    -5.08098  -1.18664   1.01999 
 H                    -2.88412  -3.22823  -0.29682 
 H                    -0.47332  -2.85445  -0.68883 
 I                     1.96757  -1.73305   1.01342 
 Br                    2.05426   0.35639  -2.37822 
 Ni                    0.62929  -0.04437  -0.49012 
 N                     0.45248   1.71361   0.56725 
 C                     1.43595   2.35121   1.2192 
 C                     1.14748   3.47305   2.00819 
 C                    -0.15703   3.93464   2.09773 
 C                    -1.15039   3.29753   1.36275 
 C                    -0.80526   2.1896    0.59035 
 C                    -1.76995   1.52544  -0.31811 
 C                    -3.12155   1.8672   -0.36422 
 C                    -3.92569   1.26838  -1.32671 
 C                    -3.35599   0.37266  -2.22005 
 C                    -1.99668   0.05383  -2.10968 
 N                    -1.2473    0.61366  -1.15143 
 C                     2.8339    1.85605   1.07112 
 H                     1.95919   3.97404   2.53793 
 H                    -0.39804   4.8042    2.71318 
 H                    -2.17159   3.67547   1.3728 
 H                    -3.54231   2.58909   0.33431 
 H                    -4.98831   1.51376  -1.38741 
 H                    -3.95166  -0.09244  -3.00722 
 C                    -1.34864  -0.90874  -3.04633 
 H                     3.01551   1.54673   0.02975 
 H                     2.9996    0.96882   1.70042 
 H                     3.55265   2.6324    1.36363 
 H                    -1.29738  -1.90787  -2.58766 
 H                    -0.31573  -0.59393  -3.26088 
 H                    -1.92128  -0.99294  -3.9793 
 
 The following ModRedundant input section has been read:
 B       1      17 B                                                           
 B      15      17 B                                                           
 B       1      15 B                                                           
 
 ITRead=  0  0  0  0  0  0  0  0  0  0  0  0  0  0  0  0  0  0  0  0
 ITRead=  0  0  0  0  0  0  0  0  0  0  0  0  0  0  0  0  0  0  0  0
 ITRead=  0  0  0
 MicOpt= -1 -1 -1 -1 -1 -1 -1 -1 -1 -1 -1 -1 -1 -1 -1 -1 -1 -1 -1 -1
 MicOpt= -1 -1 -1 -1 -1 -1 -1 -1 -1 -1 -1 -1 -1 -1 -1 -1 -1 -1 -1 -1
 MicOpt= -1 -1 -1
 NAtoms=     43 NQM=       43 NQMF=       0 NMMI=      0 NMMIF=      0
                NMic=       0 NMicF=      0.
                    Isotopes and Nuclear Properties:
 (Nuclear quadrupole moments (NQMom) in fm**2, nuclear magnetic moments (NMagM)
  in nuclear magnetons)

  Atom         1           2           3           4           5           6           7           8           9          10
 IAtWgt=          12          12          12          12          12          12           1           1          12           1
 AtmWgt=  12.0000000  12.0000000  12.0000000  12.0000000  12.0000000  12.0000000   1.0078250   1.0078250  12.0000000   1.0078250
 NucSpn=           0           0           0           0           0           0           1           1           0           1
 AtZEff=  -0.0000000  -0.0000000  -0.0000000  -0.0000000  -0.0000000  -0.0000000  -0.0000000  -0.0000000  -0.0000000  -0.0000000
 NQMom=    0.0000000   0.0000000   0.0000000   0.0000000   0.0000000   0.0000000   0.0000000   0.0000000   0.0000000   0.0000000
 NMagM=    0.0000000   0.0000000   0.0000000   0.0000000   0.0000000   0.0000000   2.7928460   2.7928460   0.0000000   2.7928460
 AtZNuc=   6.0000000   6.0000000   6.0000000   6.0000000   6.0000000   6.0000000   1.0000000   1.0000000   6.0000000   1.0000000

  Atom        11          12          13          14          15          16          17          18          19          20
 IAtWgt=           1           1           1           1         127          79          58          14          12          12
 AtmWgt=   1.0078250   1.0078250   1.0078250   1.0078250 126.9004000  78.9183361  57.9353471  14.0030740  12.0000000  12.0000000
 NucSpn=           1           1           1           1           5           3           0           2           0           0
 AtZEff=  -0.0000000  -0.0000000  -0.0000000  -0.0000000  -0.0000000  -0.0000000  -0.0000000  -0.0000000  -0.0000000  -0.0000000
 NQMom=    0.0000000   0.0000000   0.0000000   0.0000000 -71.0000000  31.3000000   0.0000000   2.0440000   0.0000000   0.0000000
 NMagM=    2.7928460   2.7928460   2.7928460   2.7928460   2.8132800   2.1063990   0.0000000   0.4037610   0.0000000   0.0000000
 AtZNuc=   1.0000000   1.0000000   1.0000000   1.0000000  53.0000000  35.0000000  28.0000000   7.0000000   6.0000000   6.0000000

  Atom        21          22          23          24          25          26          27          28          29          30
 IAtWgt=          12          12          12          12          12          12          12          12          14          12
 AtmWgt=  12.0000000  12.0000000  12.0000000  12.0000000  12.0000000  12.0000000  12.0000000  12.0000000  14.0030740  12.0000000
 NucSpn=           0           0           0           0           0           0           0           0           2           0
 AtZEff=  -0.0000000  -0.0000000  -0.0000000  -0.0000000  -0.0000000  -0.0000000  -0.0000000  -0.0000000  -0.0000000  -0.0000000
 NQMom=    0.0000000   0.0000000   0.0000000   0.0000000   0.0000000   0.0000000   0.0000000   0.0000000   2.0440000   0.0000000
 NMagM=    0.0000000   0.0000000   0.0000000   0.0000000   0.0000000   0.0000000   0.0000000   0.0000000   0.4037610   0.0000000
 AtZNuc=   6.0000000   6.0000000   6.0000000   6.0000000   6.0000000   6.0000000   6.0000000   6.0000000   7.0000000   6.0000000

  Atom        31          32          33          34          35          36          37          38          39          40
 IAtWgt=           1           1           1           1           1           1          12           1           1           1
 AtmWgt=   1.0078250   1.0078250   1.0078250   1.0078250   1.0078250   1.0078250  12.0000000   1.0078250   1.0078250   1.0078250
 NucSpn=           1           1           1           1           1           1           0           1           1           1
 AtZEff=  -0.0000000  -0.0000000  -0.0000000  -0.0000000  -0.0000000  -0.0000000  -0.0000000  -0.0000000  -0.0000000  -0.0000000
 NQMom=    0.0000000   0.0000000   0.0000000   0.0000000   0.0000000   0.0000000   0.0000000   0.0000000   0.0000000   0.0000000
 NMagM=    2.7928460   2.7928460   2.7928460   2.7928460   2.7928460   2.7928460   0.0000000   2.7928460   2.7928460   2.7928460
 AtZNuc=   1.0000000   1.0000000   1.0000000   1.0000000   1.0000000   1.0000000   6.0000000   1.0000000   1.0000000   1.0000000

  Atom        41          42          43
 IAtWgt=           1           1           1
 AtmWgt=   1.0078250   1.0078250   1.0078250
 NucSpn=           1           1           1
 AtZEff=  -0.0000000  -0.0000000  -0.0000000
 NQMom=    0.0000000   0.0000000   0.0000000
 NMagM=    2.7928460   2.7928460   2.7928460
 AtZNuc=   1.0000000   1.0000000   1.0000000
 Leave Link  101 at Thu Nov  9 17:09:00 2023, MaxMem=  4718592000 cpu:               8.9 elap:               0.3
 (Enter /ssoft/spack/external/gaussian/g16-C.01/avx2/g16/l103.exe)

 GradGradGradGradGradGradGradGradGradGradGradGradGradGradGradGradGradGrad
 Berny optimization.
 Initialization pass.
                           ----------------------------
                           !    Initial Parameters    !
                           ! (Angstroms and Degrees)  !
 --------------------------                            --------------------------
 ! Name  Definition              Value          Derivative Info.                !
 --------------------------------------------------------------------------------
 ! R1    R(1,2)                  1.4092         calculate D2E/DX2 analytically  !
 ! R2    R(1,6)                  1.4079         calculate D2E/DX2 analytically  !
 ! R3    R(1,15)                 2.3138         calculate D2E/DX2 analytically  !
 ! R4    R(1,17)                 2.0332         calculate D2E/DX2 analytically  !
 ! R5    R(2,3)                  1.3867         calculate D2E/DX2 analytically  !
 ! R6    R(2,7)                  1.0917         calculate D2E/DX2 analytically  !
 ! R7    R(3,4)                  1.4052         calculate D2E/DX2 analytically  !
 ! R8    R(3,8)                  1.0944         calculate D2E/DX2 analytically  !
 ! R9    R(4,5)                  1.3995         calculate D2E/DX2 analytically  !
 ! R10   R(4,9)                  1.4992         calculate D2E/DX2 analytically  !
 ! R11   R(5,6)                  1.3918         calculate D2E/DX2 analytically  !
 ! R12   R(5,13)                 1.0943         calculate D2E/DX2 analytically  !
 ! R13   R(6,14)                 1.0926         calculate D2E/DX2 analytically  !
 ! R14   R(9,10)                 1.0996         calculate D2E/DX2 analytically  !
 ! R15   R(9,11)                 1.1004         calculate D2E/DX2 analytically  !
 ! R16   R(9,12)                 1.1043         calculate D2E/DX2 analytically  !
 ! R17   R(15,17)                2.6274         calculate D2E/DX2 analytically  !
 ! R18   R(16,17)                2.3992         calculate D2E/DX2 analytically  !
 ! R19   R(17,18)                2.0591         calculate D2E/DX2 analytically  !
 ! R20   R(17,29)                2.0957         calculate D2E/DX2 analytically  !
 ! R21   R(18,19)                1.3412         calculate D2E/DX2 analytically  !
 ! R22   R(18,23)                1.345          calculate D2E/DX2 analytically  !
 ! R23   R(19,20)                1.4015         calculate D2E/DX2 analytically  !
 ! R24   R(19,30)                1.4904         calculate D2E/DX2 analytically  !
 ! R25   R(20,21)                1.3867         calculate D2E/DX2 analytically  !
 ! R26   R(20,31)                1.0911         calculate D2E/DX2 analytically  !
 ! R27   R(21,22)                1.3903         calculate D2E/DX2 analytically  !
 ! R28   R(21,32)                1.0922         calculate D2E/DX2 analytically  !
 ! R29   R(22,23)                1.394          calculate D2E/DX2 analytically  !
 ! R30   R(22,33)                1.0889         calculate D2E/DX2 analytically  !
 ! R31   R(23,24)                1.4822         calculate D2E/DX2 analytically  !
 ! R32   R(24,25)                1.3949         calculate D2E/DX2 analytically  !
 ! R33   R(24,29)                1.3412         calculate D2E/DX2 analytically  !
 ! R34   R(25,26)                1.3898         calculate D2E/DX2 analytically  !
 ! R35   R(25,34)                1.0891         calculate D2E/DX2 analytically  !
 ! R36   R(26,27)                1.3874         calculate D2E/DX2 analytically  !
 ! R37   R(26,35)                1.0923         calculate D2E/DX2 analytically  !
 ! R38   R(27,28)                1.4006         calculate D2E/DX2 analytically  !
 ! R39   R(27,36)                1.0912         calculate D2E/DX2 analytically  !
 ! R40   R(28,29)                1.3391         calculate D2E/DX2 analytically  !
 ! R41   R(28,37)                1.4912         calculate D2E/DX2 analytically  !
 ! R42   R(30,38)                1.1014         calculate D2E/DX2 analytically  !
 ! R43   R(30,39)                1.1003         calculate D2E/DX2 analytically  !
 ! R44   R(30,40)                1.0977         calculate D2E/DX2 analytically  !
 ! R45   R(37,41)                1.1006         calculate D2E/DX2 analytically  !
 ! R46   R(37,42)                1.1009         calculate D2E/DX2 analytically  !
 ! R47   R(37,43)                1.0979         calculate D2E/DX2 analytically  !
 ! A1    A(2,1,6)              118.3189         calculate D2E/DX2 analytically  !
 ! A2    A(2,1,15)             117.8351         calculate D2E/DX2 analytically  !
 ! A3    A(2,1,17)             116.0291         calculate D2E/DX2 analytically  !
 ! A4    A(6,1,15)             113.5781         calculate D2E/DX2 analytically  !
 ! A5    A(6,1,17)             108.7713         calculate D2E/DX2 analytically  !
 ! A6    A(1,2,3)              120.0702         calculate D2E/DX2 analytically  !
 ! A7    A(1,2,7)              119.9176         calculate D2E/DX2 analytically  !
 ! A8    A(3,2,7)              119.9692         calculate D2E/DX2 analytically  !
 ! A9    A(2,3,4)              121.7397         calculate D2E/DX2 analytically  !
 ! A10   A(2,3,8)              118.9726         calculate D2E/DX2 analytically  !
 ! A11   A(4,3,8)              119.2869         calculate D2E/DX2 analytically  !
 ! A12   A(3,4,5)              117.4999         calculate D2E/DX2 analytically  !
 ! A13   A(3,4,9)              121.0302         calculate D2E/DX2 analytically  !
 ! A14   A(5,4,9)              121.4693         calculate D2E/DX2 analytically  !
 ! A15   A(4,5,6)              121.5553         calculate D2E/DX2 analytically  !
 ! A16   A(4,5,13)             119.4012         calculate D2E/DX2 analytically  !
 ! A17   A(6,5,13)             119.0426         calculate D2E/DX2 analytically  !
 ! A18   A(1,6,5)              120.1679         calculate D2E/DX2 analytically  !
 ! A19   A(1,6,14)             119.73           calculate D2E/DX2 analytically  !
 ! A20   A(5,6,14)             120.0887         calculate D2E/DX2 analytically  !
 ! A21   A(4,9,10)             111.6355         calculate D2E/DX2 analytically  !
 ! A22   A(4,9,11)             111.7395         calculate D2E/DX2 analytically  !
 ! A23   A(4,9,12)             110.8511         calculate D2E/DX2 analytically  !
 ! A24   A(10,9,11)            108.0465         calculate D2E/DX2 analytically  !
 ! A25   A(10,9,12)            107.2518         calculate D2E/DX2 analytically  !
 ! A26   A(11,9,12)            107.09           calculate D2E/DX2 analytically  !
 ! A27   A(1,17,16)            151.418          calculate D2E/DX2 analytically  !
 ! A28   A(1,17,18)             99.1629         calculate D2E/DX2 analytically  !
 ! A29   A(1,17,29)             89.3393         calculate D2E/DX2 analytically  !
 ! A30   A(15,17,16)           104.7843         calculate D2E/DX2 analytically  !
 ! A31   A(15,17,18)           107.3743         calculate D2E/DX2 analytically  !
 ! A32   A(15,17,29)           146.9808         calculate D2E/DX2 analytically  !
 ! A33   A(16,17,18)           108.2106         calculate D2E/DX2 analytically  !
 ! A34   A(16,17,29)           103.3594         calculate D2E/DX2 analytically  !
 ! A35   A(18,17,29)            79.46           calculate D2E/DX2 analytically  !
 ! A36   A(17,18,19)           126.3372         calculate D2E/DX2 analytically  !
 ! A37   A(17,18,23)           113.0329         calculate D2E/DX2 analytically  !
 ! A38   A(19,18,23)           120.6056         calculate D2E/DX2 analytically  !
 ! A39   A(18,19,20)           120.2155         calculate D2E/DX2 analytically  !
 ! A40   A(18,19,30)           118.7865         calculate D2E/DX2 analytically  !
 ! A41   A(20,19,30)           120.9921         calculate D2E/DX2 analytically  !
 ! A42   A(19,20,21)           119.7644         calculate D2E/DX2 analytically  !
 ! A43   A(19,20,31)           119.1918         calculate D2E/DX2 analytically  !
 ! A44   A(21,20,31)           121.0423         calculate D2E/DX2 analytically  !
 ! A45   A(20,21,22)           119.045          calculate D2E/DX2 analytically  !
 ! A46   A(20,21,32)           120.5955         calculate D2E/DX2 analytically  !
 ! A47   A(22,21,32)           120.3353         calculate D2E/DX2 analytically  !
 ! A48   A(21,22,23)           118.7014         calculate D2E/DX2 analytically  !
 ! A49   A(21,22,33)           120.4063         calculate D2E/DX2 analytically  !
 ! A50   A(23,22,33)           120.8735         calculate D2E/DX2 analytically  !
 ! A51   A(18,23,22)           121.4872         calculate D2E/DX2 analytically  !
 ! A52   A(18,23,24)           116.0727         calculate D2E/DX2 analytically  !
 ! A53   A(22,23,24)           122.3164         calculate D2E/DX2 analytically  !
 ! A54   A(23,24,25)           122.7588         calculate D2E/DX2 analytically  !
 ! A55   A(23,24,29)           115.5814         calculate D2E/DX2 analytically  !
 ! A56   A(25,24,29)           121.5738         calculate D2E/DX2 analytically  !
 ! A57   A(24,25,26)           118.5519         calculate D2E/DX2 analytically  !
 ! A58   A(24,25,34)           121.0339         calculate D2E/DX2 analytically  !
 ! A59   A(26,25,34)           120.4139         calculate D2E/DX2 analytically  !
 ! A60   A(25,26,27)           119.1107         calculate D2E/DX2 analytically  !
 ! A61   A(25,26,35)           120.3031         calculate D2E/DX2 analytically  !
 ! A62   A(27,26,35)           120.5787         calculate D2E/DX2 analytically  !
 ! A63   A(26,27,28)           119.6532         calculate D2E/DX2 analytically  !
 ! A64   A(26,27,36)           121.0308         calculate D2E/DX2 analytically  !
 ! A65   A(28,27,36)           119.3156         calculate D2E/DX2 analytically  !
 ! A66   A(27,28,29)           120.2885         calculate D2E/DX2 analytically  !
 ! A67   A(27,28,37)           121.2789         calculate D2E/DX2 analytically  !
 ! A68   A(29,28,37)           118.4326         calculate D2E/DX2 analytically  !
 ! A69   A(17,29,24)           111.4893         calculate D2E/DX2 analytically  !
 ! A70   A(17,29,28)           126.5587         calculate D2E/DX2 analytically  !
 ! A71   A(24,29,28)           120.7125         calculate D2E/DX2 analytically  !
 ! A72   A(19,30,38)           109.9928         calculate D2E/DX2 analytically  !
 ! A73   A(19,30,39)           110.6295         calculate D2E/DX2 analytically  !
 ! A74   A(19,30,40)           110.6538         calculate D2E/DX2 analytically  !
 ! A75   A(38,30,39)           106.8259         calculate D2E/DX2 analytically  !
 ! A76   A(38,30,40)           110.036          calculate D2E/DX2 analytically  !
 ! A77   A(39,30,40)           108.62           calculate D2E/DX2 analytically  !
 ! A78   A(28,37,41)           110.1485         calculate D2E/DX2 analytically  !
 ! A79   A(28,37,42)           110.2151         calculate D2E/DX2 analytically  !
 ! A80   A(28,37,43)           110.8904         calculate D2E/DX2 analytically  !
 ! A81   A(41,37,42)           107.2843         calculate D2E/DX2 analytically  !
 ! A82   A(41,37,43)           107.988          calculate D2E/DX2 analytically  !
 ! A83   A(42,37,43)           110.2227         calculate D2E/DX2 analytically  !
 ! D1    D(6,1,2,3)             -8.4434         calculate D2E/DX2 analytically  !
 ! D2    D(6,1,2,7)            173.9428         calculate D2E/DX2 analytically  !
 ! D3    D(15,1,2,3)          -151.4179         calculate D2E/DX2 analytically  !
 ! D4    D(15,1,2,7)            30.9682         calculate D2E/DX2 analytically  !
 ! D5    D(17,1,2,3)           123.621          calculate D2E/DX2 analytically  !
 ! D6    D(17,1,2,7)           -53.9929         calculate D2E/DX2 analytically  !
 ! D7    D(2,1,6,5)              8.808          calculate D2E/DX2 analytically  !
 ! D8    D(2,1,6,14)          -172.5229         calculate D2E/DX2 analytically  !
 ! D9    D(15,1,6,5)           153.2871         calculate D2E/DX2 analytically  !
 ! D10   D(15,1,6,14)          -28.0438         calculate D2E/DX2 analytically  !
 ! D11   D(17,1,6,5)          -126.3973         calculate D2E/DX2 analytically  !
 ! D12   D(17,1,6,14)           52.2718         calculate D2E/DX2 analytically  !
 ! D13   D(2,1,17,16)          172.091          calculate D2E/DX2 analytically  !
 ! D14   D(2,1,17,18)            8.8095         calculate D2E/DX2 analytically  !
 ! D15   D(2,1,17,29)          -70.4035         calculate D2E/DX2 analytically  !
 ! D16   D(6,1,17,16)          -51.5596         calculate D2E/DX2 analytically  !
 ! D17   D(6,1,17,18)          145.1589         calculate D2E/DX2 analytically  !
 ! D18   D(6,1,17,29)           65.9459         calculate D2E/DX2 analytically  !
 ! D19   D(1,2,3,4)              2.4597         calculate D2E/DX2 analytically  !
 ! D20   D(1,2,3,8)           -177.2084         calculate D2E/DX2 analytically  !
 ! D21   D(7,2,3,4)           -179.9277         calculate D2E/DX2 analytically  !
 ! D22   D(7,2,3,8)              0.4042         calculate D2E/DX2 analytically  !
 ! D23   D(2,3,4,5)              3.2407         calculate D2E/DX2 analytically  !
 ! D24   D(2,3,4,9)           -176.4664         calculate D2E/DX2 analytically  !
 ! D25   D(8,3,4,5)           -177.0922         calculate D2E/DX2 analytically  !
 ! D26   D(8,3,4,9)              3.2006         calculate D2E/DX2 analytically  !
 ! D27   D(3,4,5,6)             -2.8708         calculate D2E/DX2 analytically  !
 ! D28   D(3,4,5,13)           176.791          calculate D2E/DX2 analytically  !
 ! D29   D(9,4,5,6)            176.835          calculate D2E/DX2 analytically  !
 ! D30   D(9,4,5,13)            -3.5032         calculate D2E/DX2 analytically  !
 ! D31   D(3,4,9,10)          -157.9099         calculate D2E/DX2 analytically  !
 ! D32   D(3,4,9,11)           -36.7823         calculate D2E/DX2 analytically  !
 ! D33   D(3,4,9,12)            82.5861         calculate D2E/DX2 analytically  !
 ! D34   D(5,4,9,10)            22.3946         calculate D2E/DX2 analytically  !
 ! D35   D(5,4,9,11)           143.5222         calculate D2E/DX2 analytically  !
 ! D36   D(5,4,9,12)           -97.1094         calculate D2E/DX2 analytically  !
 ! D37   D(4,5,6,1)             -3.1901         calculate D2E/DX2 analytically  !
 ! D38   D(4,5,6,14)           178.1456         calculate D2E/DX2 analytically  !
 ! D39   D(13,5,6,1)           177.1468         calculate D2E/DX2 analytically  !
 ! D40   D(13,5,6,14)           -1.5175         calculate D2E/DX2 analytically  !
 ! D41   D(1,17,18,19)         106.1888         calculate D2E/DX2 analytically  !
 ! D42   D(1,17,18,23)         -72.015          calculate D2E/DX2 analytically  !
 ! D43   D(15,17,18,19)         47.1267         calculate D2E/DX2 analytically  !
 ! D44   D(15,17,18,23)       -131.0771         calculate D2E/DX2 analytically  !
 ! D45   D(16,17,18,19)        -65.4808         calculate D2E/DX2 analytically  !
 ! D46   D(16,17,18,23)        116.3154         calculate D2E/DX2 analytically  !
 ! D47   D(29,17,18,19)       -166.2122         calculate D2E/DX2 analytically  !
 ! D48   D(29,17,18,23)         15.584          calculate D2E/DX2 analytically  !
 ! D49   D(1,17,29,24)          80.6308         calculate D2E/DX2 analytically  !
 ! D50   D(1,17,29,28)         -86.6027         calculate D2E/DX2 analytically  !
 ! D51   D(15,17,29,24)         86.9137         calculate D2E/DX2 analytically  !
 ! D52   D(15,17,29,28)        -80.3198         calculate D2E/DX2 analytically  !
 ! D53   D(16,17,29,24)       -125.2271         calculate D2E/DX2 analytically  !
 ! D54   D(16,17,29,28)         67.5394         calculate D2E/DX2 analytically  !
 ! D55   D(18,17,29,24)        -18.816          calculate D2E/DX2 analytically  !
 ! D56   D(18,17,29,28)        173.9506         calculate D2E/DX2 analytically  !
 ! D57   D(17,18,19,20)       -173.7506         calculate D2E/DX2 analytically  !
 ! D58   D(17,18,19,30)          7.1266         calculate D2E/DX2 analytically  !
 ! D59   D(23,18,19,20)          4.3288         calculate D2E/DX2 analytically  !
 ! D60   D(23,18,19,30)       -174.794          calculate D2E/DX2 analytically  !
 ! D61   D(17,18,23,22)        173.6777         calculate D2E/DX2 analytically  !
 ! D62   D(17,18,23,24)        -10.276          calculate D2E/DX2 analytically  !
 ! D63   D(19,18,23,22)         -4.6412         calculate D2E/DX2 analytically  !
 ! D64   D(19,18,23,24)        171.405          calculate D2E/DX2 analytically  !
 ! D65   D(18,19,20,21)         -0.9331         calculate D2E/DX2 analytically  !
 ! D66   D(18,19,20,31)        179.4965         calculate D2E/DX2 analytically  !
 ! D67   D(30,19,20,21)        178.17           calculate D2E/DX2 analytically  !
 ! D68   D(30,19,20,31)         -1.4004         calculate D2E/DX2 analytically  !
 ! D69   D(18,19,30,38)         39.3542         calculate D2E/DX2 analytically  !
 ! D70   D(18,19,30,39)        -78.4272         calculate D2E/DX2 analytically  !
 ! D71   D(18,19,30,40)        161.1415         calculate D2E/DX2 analytically  !
 ! D72   D(20,19,30,38)       -139.7615         calculate D2E/DX2 analytically  !
 ! D73   D(20,19,30,39)        102.4571         calculate D2E/DX2 analytically  !
 ! D74   D(20,19,30,40)        -17.9742         calculate D2E/DX2 analytically  !
 ! D75   D(19,20,21,22)         -2.1376         calculate D2E/DX2 analytically  !
 ! D76   D(19,20,21,32)        179.6472         calculate D2E/DX2 analytically  !
 ! D77   D(31,20,21,22)        177.4246         calculate D2E/DX2 analytically  !
 ! D78   D(31,20,21,32)         -0.7906         calculate D2E/DX2 analytically  !
 ! D79   D(20,21,22,23)          1.8715         calculate D2E/DX2 analytically  !
 ! D80   D(20,21,22,33)       -176.5651         calculate D2E/DX2 analytically  !
 ! D81   D(32,21,22,23)       -179.9086         calculate D2E/DX2 analytically  !
 ! D82   D(32,21,22,33)          1.6548         calculate D2E/DX2 analytically  !
 ! D83   D(21,22,23,18)          1.4755         calculate D2E/DX2 analytically  !
 ! D84   D(21,22,23,24)       -174.3218         calculate D2E/DX2 analytically  !
 ! D85   D(33,22,23,18)        179.9045         calculate D2E/DX2 analytically  !
 ! D86   D(33,22,23,24)          4.1072         calculate D2E/DX2 analytically  !
 ! D87   D(18,23,24,25)        177.1101         calculate D2E/DX2 analytically  !
 ! D88   D(18,23,24,29)         -6.2171         calculate D2E/DX2 analytically  !
 ! D89   D(22,23,24,25)         -6.8794         calculate D2E/DX2 analytically  !
 ! D90   D(22,23,24,29)        169.7934         calculate D2E/DX2 analytically  !
 ! D91   D(23,24,25,26)        174.6364         calculate D2E/DX2 analytically  !
 ! D92   D(23,24,25,34)         -5.1839         calculate D2E/DX2 analytically  !
 ! D93   D(29,24,25,26)         -1.8409         calculate D2E/DX2 analytically  !
 ! D94   D(29,24,25,34)        178.3388         calculate D2E/DX2 analytically  !
 ! D95   D(23,24,29,17)         18.9731         calculate D2E/DX2 analytically  !
 ! D96   D(23,24,29,28)       -172.9417         calculate D2E/DX2 analytically  !
 ! D97   D(25,24,29,17)       -164.311          calculate D2E/DX2 analytically  !
 ! D98   D(25,24,29,28)          3.7742         calculate D2E/DX2 analytically  !
 ! D99   D(24,25,26,27)         -1.1003         calculate D2E/DX2 analytically  !
 ! D100  D(24,25,26,35)        179.8947         calculate D2E/DX2 analytically  !
 ! D101  D(34,25,26,27)        178.7213         calculate D2E/DX2 analytically  !
 ! D102  D(34,25,26,35)         -0.2837         calculate D2E/DX2 analytically  !
 ! D103  D(25,26,27,28)          2.1318         calculate D2E/DX2 analytically  !
 ! D104  D(25,26,27,36)       -178.1267         calculate D2E/DX2 analytically  !
 ! D105  D(35,26,27,28)       -178.866          calculate D2E/DX2 analytically  !
 ! D106  D(35,26,27,36)          0.8755         calculate D2E/DX2 analytically  !
 ! D107  D(26,27,28,29)         -0.2893         calculate D2E/DX2 analytically  !
 ! D108  D(26,27,28,37)        179.722          calculate D2E/DX2 analytically  !
 ! D109  D(36,27,28,29)        179.9647         calculate D2E/DX2 analytically  !
 ! D110  D(36,27,28,37)         -0.024          calculate D2E/DX2 analytically  !
 ! D111  D(27,28,29,17)        163.4919         calculate D2E/DX2 analytically  !
 ! D112  D(27,28,29,24)         -2.671          calculate D2E/DX2 analytically  !
 ! D113  D(37,28,29,17)        -16.5191         calculate D2E/DX2 analytically  !
 ! D114  D(37,28,29,24)        177.318          calculate D2E/DX2 analytically  !
 ! D115  D(27,28,37,41)        -97.582          calculate D2E/DX2 analytically  !
 ! D116  D(27,28,37,42)        144.2304         calculate D2E/DX2 analytically  !
 ! D117  D(27,28,37,43)         21.8987         calculate D2E/DX2 analytically  !
 ! D118  D(29,28,37,41)         82.4292         calculate D2E/DX2 analytically  !
 ! D119  D(29,28,37,42)        -35.7585         calculate D2E/DX2 analytically  !
 ! D120  D(29,28,37,43)       -158.0901         calculate D2E/DX2 analytically  !
 --------------------------------------------------------------------------------
 Trust Radius=5.00D-02 FncErr=1.00D-07 GrdErr=1.00D-06 EigMax=2.50D+02 EigMin=1.00D-04
 Number of steps in this run=    258 maximum allowed number of steps=    258.
 Search for a saddle point of order  1.
 GradGradGradGradGradGradGradGradGradGradGradGradGradGradGradGradGradGrad

 Leave Link  103 at Thu Nov  9 17:09:00 2023, MaxMem=  4718592000 cpu:               3.5 elap:               0.1
 (Enter /ssoft/spack/external/gaussian/g16-C.01/avx2/g16/l202.exe)
                          Input orientation:                          
 ---------------------------------------------------------------------
 Center     Atomic      Atomic             Coordinates (Angstroms)
 Number     Number       Type             X           Y           Z
 ---------------------------------------------------------------------
      1          6           0       -0.296661   -1.300595    0.813158
      2          6           0       -0.948878   -0.690078    1.903024
      3          6           0       -2.297276   -0.924764    2.125988
      4          6           0       -3.037849   -1.804710    1.318625
      5          6           0       -2.349048   -2.495915    0.315415
      6          6           0       -0.994376   -2.279714    0.080491
      7          1           0       -0.401117   -0.001355    2.549029
      8          1           0       -2.796608   -0.405521    2.949908
      9          6           0       -4.511563   -1.987240    1.524323
     10          1           0       -4.862585   -2.945119    1.114108
     11          1           0       -4.781521   -1.953626    2.590606
     12          1           0       -5.080978   -1.186637    1.019993
     13          1           0       -2.884124   -3.228227   -0.296824
     14          1           0       -0.473318   -2.854447   -0.688827
     15         53           0        1.967571   -1.733046    1.013420
     16         35           0        2.054259    0.356389   -2.378222
     17         28           0        0.629288   -0.044368   -0.490116
     18          7           0        0.452482    1.713613    0.567246
     19          6           0        1.435951    2.351207    1.219202
     20          6           0        1.147481    3.473050    2.008187
     21          6           0       -0.157033    3.934636    2.097728
     22          6           0       -1.150393    3.297527    1.362748
     23          6           0       -0.805262    2.189598    0.590345
     24          6           0       -1.769946    1.525435   -0.318110
     25          6           0       -3.121555    1.867199   -0.364221
     26          6           0       -3.925686    1.268381   -1.326711
     27          6           0       -3.355989    0.372657   -2.220051
     28          6           0       -1.996680    0.053829   -2.109676
     29          7           0       -1.247302    0.613655   -1.151427
     30          6           0        2.833897    1.856049    1.071119
     31          1           0        1.959187    3.974037    2.537930
     32          1           0       -0.398038    4.804197    2.713176
     33          1           0       -2.171586    3.675468    1.372796
     34          1           0       -3.542312    2.589089    0.334310
     35          1           0       -4.988306    1.513762   -1.387414
     36          1           0       -3.951661   -0.092443   -3.007224
     37          6           0       -1.348639   -0.908740   -3.046333
     38          1           0        3.015509    1.546729    0.029754
     39          1           0        2.999601    0.968818    1.700415
     40          1           0        3.552649    2.632396    1.363625
     41          1           0       -1.297380   -1.907870   -2.587659
     42          1           0       -0.315734   -0.593931   -3.260882
     43          1           0       -1.921279   -0.992936   -3.979303
 ---------------------------------------------------------------------
                    Distance matrix (angstroms):
                    1          2          3          4          5
     1  C    0.000000
     2  C    1.409229   0.000000
     3  C    2.422237   1.386711   0.000000
     4  C    2.832621   2.438796   1.405200   0.000000
     5  C    2.426691   2.782450   2.397784   1.399515   0.000000
     6  C    1.407935   2.418809   2.778038   2.436060   1.391786
     7  H    2.170756   1.091652   2.151062   3.423206   3.873796
     8  H    3.408312   2.142672   1.094436   2.162640   3.392729
     9  C    4.329277   3.810350   2.528621   1.499154   2.529166
    10  H    4.862375   4.585270   3.418559   2.161486   2.675362
    11  H    4.868238   4.093712   2.728718   2.163447   3.374536
    12  H    4.790142   4.254476   3.006792   2.155359   3.110318
    13  H    3.412153   3.876430   3.394164   2.158636   1.094269
    14  H    2.168323   3.410035   3.869584   3.421788   2.157640
    15  I    2.313842   3.222554   4.481077   5.015228   4.438736
    16  Br   4.296199   5.333197   6.392583   6.653314   5.897494
    17  Ni   2.033227   2.938481   4.022919   4.451768   3.940742
    18  N    3.115628   3.086396   4.117266   5.012542   5.062817
    19  C    4.062324   3.924849   5.048884   6.107079   6.215918
    20  C    5.128482   4.662340   5.587575   6.771059   7.121779
    21  C    5.392333   4.696052   5.309916   6.468863   7.023785
    22  C    4.708889   4.029082   4.441353   5.440336   6.008132
    23  C    3.534087   3.168010   3.779359   4.633501   4.940941
    24  C    3.381831   3.242852   3.500738   3.921268   4.111930
    25  C    4.404675   4.049764   3.830879   4.040036   4.482793
    26  C    4.934420   4.809172   4.402583   4.150897   4.399124
    27  C    4.621647   4.891149   4.657492   4.167057   3.958690
    28  C    3.642456   4.213437   4.357620   4.036267   3.536442
    29  N    2.903044   3.334434   3.769699   3.893033   3.610387
    30  C    4.453239   4.635107   5.930818   6.923859   6.809816
    31  H    5.990445   5.532984   6.502724   7.736342   8.084599
    32  H    6.394438   5.580934   6.064065   7.251967   7.927631
    33  H    5.346938   4.564444   4.663178   5.548486   6.263826
    34  H    5.088535   4.465389   4.136108   4.530875   5.223170
    35  H    5.897004   5.656931   5.052924   4.705230   5.093409
    36  H    5.423465   5.786571   5.457070   4.741295   4.402837
    37  C    4.019438   4.970287   5.258619   4.765401   3.849843
    38  H    4.437504   4.922277   6.223195   7.038215   6.723321
    39  H    4.099122   4.287595   5.641247   6.655000   6.521552
    40  H    5.530698   5.620812   6.888847   7.945099   7.888494
    41  H    3.596634   4.665909   4.917800   4.277725   3.143190
    42  H    4.134917   5.203464   5.749289   5.463312   4.532307
    43  H    5.069686   5.969846   6.117238   5.474828   4.570179
                    6          7          8          9         10
     6  C    0.000000
     7  H    3.411240   0.000000
     8  H    3.872234   2.462200   0.000000
     9  C    3.813240   4.678625   2.734081   0.000000
    10  H    4.058838   5.534387   3.753396   1.099557   0.000000
    11  H    4.555159   4.795939   2.542756   1.100439   1.780358
    12  H    4.333336   5.063985   3.090803   1.104331   1.774489
    13  H    2.147834   4.967586   4.303092   2.739559   2.446464
    14  H    1.092552   4.316139   4.963397   4.685883   4.745994
    15  I    3.153146   3.311726   5.311281   6.504215   6.937600
    16  Br   4.721068   5.516761   7.245715   7.989523   8.422533
    17  Ni   2.821108   3.209359   4.868363   5.853295   6.414714
    18  N    4.275160   2.756304   4.552405   6.265305   7.088919
    19  C    5.352437   3.267691   5.339424   7.368049   8.230047
    20  C    6.434117   3.842155   5.611238   7.878685   8.838165
    21  C    6.586997   3.969291   5.150780   7.372879   8.392899
    22  C    5.724870   3.584871   4.352202   6.265168   7.267243
    23  C    4.502273   2.966488   4.033316   5.661710   6.565175
    24  C    3.903787   3.524949   3.932247   4.821816   5.621523
    25  C    4.681832   4.402193   4.031662   4.511698   5.326823
    26  C    4.812668   5.390378   4.729295   4.367003   4.958726
    27  C    4.231404   5.622746   5.258036   4.574364   4.939037
    28  C    3.353635   4.924672   5.142983   4.867910   5.253559
    29  N    3.154866   3.845470   4.501113   4.957791   5.555879
    30  C    5.722024   4.012416   6.351939   8.302533   9.071323
    31  H    7.339751   4.623300   6.478259   8.856344   9.820314
    32  H    7.580794   4.808356   5.740239   8.028579   9.085213
    33  H    6.206454   4.247012   4.419548   6.129006   7.151263
    34  H    5.501058   4.634920   4.045382   4.826838   5.742705
    35  H    5.700586   6.231650   5.224897   4.578484   5.114200
    36  H    4.802465   6.594438   6.076149   4.943548   5.094401
    37  C    3.432506   5.747105   6.189083   5.661991   5.814114
    38  H    5.542871   4.518478   6.791118   8.448638   9.133285
    39  H    5.397126   3.636793   6.086549   8.073839   8.802081
    40  H    6.815475   4.896335   7.215144   9.295073  10.098866
    41  H    2.710923   5.551905   5.930378   5.219738   5.243057
    42  H    3.803576   5.840677   6.690601   6.514943   6.733682
    43  H    4.358540   6.775931   7.008939   6.163450   6.197188
                   11         12         13         14         15
    11  H    0.000000
    12  H    1.773350   0.000000
    13  H    3.682659   3.275403   0.000000
    14  H    5.488786   5.189623   2.470903   0.000000
    15  I    6.934437   7.069699   5.243210   3.180114   0.000000
    16  Br   8.760897   8.052354   6.447427   4.421783   3.984531
    17  Ni   6.512524   6.016007   4.745354   3.025189   2.627405
    18  N    6.703537   6.263833   6.025059   4.827214   3.791309
    19  C    7.685655   7.417977   7.217442   5.863848   4.123844
    20  C    8.058603   7.841104   8.153161   7.066689   5.363352
    21  C    7.503362   7.185693   8.029789   7.345514   6.149169
    22  C    6.501333   5.972831   6.953091   6.520289   5.928777
    23  C    6.080953   5.464916   5.870397   5.214294   4.822316
    24  C    5.443719   4.484282   4.882535   4.582798   5.134170
    25  C    5.107367   3.883465   5.101400   5.423326   6.384267
    26  C    5.143846   3.587316   4.729165   5.415113   7.015359
    27  C    5.530475   3.988091   4.109480   4.590059   6.574923
    28  C    5.820470   4.565794   3.853035   3.577361   5.353684
    29  N    5.751908   4.759537   4.262580   3.583404   4.530891
    30  C    8.649685   8.479729   7.772831   6.018626   3.692621
    31  H    8.976475   8.860057   9.130504   7.934560   5.907199
    32  H    8.055937   7.790179   8.930877   8.380580   7.156872
    33  H    6.323094   5.677068   7.138371   7.055083   6.820102
    34  H    5.221376   4.134460   5.888354   6.332268   7.035684
    35  H    5.281116   3.618888   5.301267   6.320949   8.043009
    36  H    5.957212   4.323320   4.280075   5.010240   7.341285
    37  C    6.682181   5.526535   3.911206   3.179591   5.306442
    38  H    8.922114   8.602614   7.596876   5.662033   3.580879
    39  H    8.359365   8.390752   7.498158   5.690958   2.972729
    40  H    9.591427   9.446831   8.862056   7.108194   4.657489
    41  H    6.241455   5.277399   3.083671   2.276104   4.863974
    42  H    7.485448   6.433097   4.724593   3.427861   4.978024
    43  H    7.229634   5.917278   4.414097   4.048339   6.371672
                   16         17         18         19         20
    16  Br   0.000000
    17  Ni   2.399186   0.000000
    18  N    3.617116   2.059071   0.000000
    19  C    4.159695   3.051435   1.341188   0.000000
    20  C    5.456776   4.345374   2.378015   1.401515   0.000000
    21  C    6.142295   4.811207   2.765290   2.411774   1.386664
    22  C    5.737155   4.215285   2.389731   2.757771   2.393246
    23  C    4.511087   2.866345   1.344996   2.333370   2.733264
    24  C    4.498363   2.872315   2.399678   3.650069   4.209067
    25  C    5.755675   4.211741   3.696615   4.848954   5.141181
    26  C    6.139800   4.813625   4.790998   6.033352   6.459035
    27  C    5.412584   4.364518   4.906286   6.221399   6.911706
    28  C    4.071089   3.086799   3.989886   5.304934   6.207545
    29  N    3.531503   2.095690   2.655750   3.979801   4.888178
    30  C    3.841194   3.302929   2.438301   1.490424   2.517298
    31  H    6.104504   5.204351   3.356080   2.155550   1.091092
    32  H    7.191599   5.901276   3.857474   3.407731   2.158145
    33  H    6.553181   5.015228   3.373947   3.845983   3.385395
    34  H    6.607903   5.001702   4.096230   5.061889   5.057411
    35  H    7.205479   5.898328   5.784705   6.983326   7.281263
    36  H    6.055425   5.227163   5.952743   7.270520   7.991767
    37  C    3.691428   3.345681   4.814429   6.047808   7.139949
    38  H    2.852939   2.914774   2.624091   2.134707   3.333832
    39  H    4.231314   3.382803   2.885586   2.141861   3.129896
    40  H    4.628909   4.375781   3.330078   2.140172   2.628116
    41  H    4.050212   3.403583   5.111808   6.332695   7.486885
    42  H    2.701678   2.978629   4.535359   5.640336   6.815014
    43  H    4.493222   4.424884   5.799246   7.034113   8.075417
                   21         22         23         24         25
    21  C    0.000000
    22  C    1.390276   0.000000
    23  C    2.395321   1.393997   0.000000
    24  C    3.773859   2.519809   1.482234   0.000000
    25  C    4.373086   2.985589   2.525936   1.394911   0.000000
    26  C    5.747908   4.364960   3.776346   2.393860   1.389819
    27  C    6.447033   5.124058   4.207827   2.731631   2.394310
    28  C    6.012255   4.826542   3.642952   2.329537   2.756858
    29  N    4.772275   3.678809   2.390139   1.341237   2.388282
    30  C    3.784192   4.247055   3.685902   4.820232   6.125988
    31  H    2.161878   3.392375   3.823544   5.297079   6.218938
    32  H    1.092244   2.158645   3.392399   4.671307   5.051126
    33  H    2.156645   1.088933   2.164920   2.764619   2.681325
    34  H    4.047253   2.698304   2.777875   2.167555   1.089085
    35  H    6.430245   5.047255   4.676125   3.391370   2.157916
    36  H    7.528420   6.199650   5.296229   3.822139   3.393337
    37  C    7.165164   6.096883   4.808366   3.680477   4.247681
    38  H    4.477012   4.711359   3.914822   4.798129   6.158041
    39  H    4.349514   4.770677   4.147233   5.208920   6.522144
    40  H    3.999560   4.749843   4.448081   5.690660   6.936568
    41  H    7.575495   6.536320   5.208755   4.142675   4.745781
    42  H    7.017678   6.100660   4.776989   3.907218   4.724451
    43  H    8.020214   6.894915   5.679410   4.446283   4.763387
                   26         27         28         29         30
    26  C    0.000000
    27  C    1.387419   0.000000
    28  C    2.410235   1.400555   0.000000
    29  N    2.762812   2.376257   1.339109   0.000000
    30  C    7.196312   7.165678   6.058047   4.810347   0.000000
    31  H    7.542397   7.991209   7.253768   5.931702   2.720758
    32  H    6.423938   7.261181   6.955685   5.763423   4.672615
    33  H    4.019735   5.021944   5.027372   4.074396   5.334431
    34  H    2.156441   3.387041   3.845723   3.372955   6.460362
    35  H    1.092272   2.158672   3.406302   3.854996   8.206607
    36  H    2.162554   1.091231   2.156140   3.355013   8.153116
    37  C    3.786572   2.520749   1.491249   2.432822   6.487764
    38  H    7.077970   6.858284   5.650482   4.520771   1.101409
    39  H    7.563916   7.491261   6.349553   5.127897   1.100295
    40  H    8.063742   8.104223   7.036184   5.782762   1.097670
    41  H    4.311212   3.094157   2.136762   2.902302   6.679910
    42  H    4.498997   3.355707   2.137861   2.603053   5.889721
    43  H    4.020876   2.649189   2.144040   3.321485   7.499012
                   31         32         33         34         35
    31  H    0.000000
    32  H    2.505272   0.000000
    33  H    4.302321   2.493215   0.000000
    34  H    6.086092   4.522407   2.034100   0.000000
    35  H    8.350385   6.979424   4.497293   2.492300   0.000000
    36  H    9.067696   8.326362   6.045692   4.303955   2.505656
    37  C    8.122021   8.167817   6.420351   5.336268   4.676292
    38  H    3.646723   5.428089   5.765522   6.647126   8.128377
    39  H    3.288652   5.223004   5.845893   6.876638   8.581277
    40  H    2.391258   4.705947   5.818501   7.169368   9.042537
    41  H    8.454213   8.599972   6.900949   5.813799   5.174079
    42  H    7.724495   8.052076   6.568328   5.785138   5.457580
    43  H    9.066596   8.984224   7.106449   5.836601   4.733717
                   36         37         38         39         40
    36  H    0.000000
    37  C    2.728295   0.000000
    38  H    7.775061   5.876855   0.000000
    39  H    8.462162   6.705522   1.767864   0.000000
    40  H    9.101853   7.483983   1.801778   1.785156   0.000000
    41  H    3.242995   1.100577   6.114419   6.717660   7.729776
    42  H    3.679103   1.100922   5.148581   6.168314   6.838102
    43  H    2.424516   1.097925   6.847942   7.766771   8.464857
                   41         42         43
    41  H    0.000000
    42  H    1.772934   0.000000
    43  H    1.778490   1.803638   0.000000
 Stoichiometry    C19H19BrIN2Ni(2)
 Framework group  C1[X(C19H19BrIN2Ni)]
 Deg. of freedom   123
 Full point group                 C1      NOp   1
 Largest Abelian subgroup         C1      NOp   1
 Largest concise Abelian subgroup C1      NOp   1
                         Standard orientation:                         
 ---------------------------------------------------------------------
 Center     Atomic      Atomic             Coordinates (Angstroms)
 Number     Number       Type             X           Y           Z
 ---------------------------------------------------------------------
      1          6           0        0.296661   -1.300595   -0.813158
      2          6           0        0.948878   -0.690078   -1.903024
      3          6           0        2.297276   -0.924764   -2.125988
      4          6           0        3.037849   -1.804710   -1.318625
      5          6           0        2.349048   -2.495915   -0.315415
      6          6           0        0.994376   -2.279714   -0.080491
      7          1           0        0.401117   -0.001355   -2.549029
      8          1           0        2.796608   -0.405521   -2.949908
      9          6           0        4.511563   -1.987240   -1.524323
     10          1           0        4.862585   -2.945119   -1.114108
     11          1           0        4.781521   -1.953626   -2.590606
     12          1           0        5.080978   -1.186637   -1.019993
     13          1           0        2.884124   -3.228227    0.296824
     14          1           0        0.473318   -2.854447    0.688827
     15         53           0       -1.967571   -1.733046   -1.013420
     16         35           0       -2.054259    0.356389    2.378222
     17         28           0       -0.629288   -0.044368    0.490116
     18          7           0       -0.452482    1.713613   -0.567246
     19          6           0       -1.435951    2.351207   -1.219202
     20          6           0       -1.147481    3.473050   -2.008187
     21          6           0        0.157033    3.934636   -2.097728
     22          6           0        1.150393    3.297527   -1.362748
     23          6           0        0.805262    2.189598   -0.590345
     24          6           0        1.769946    1.525435    0.318110
     25          6           0        3.121555    1.867199    0.364221
     26          6           0        3.925686    1.268381    1.326711
     27          6           0        3.355989    0.372657    2.220051
     28          6           0        1.996680    0.053829    2.109676
     29          7           0        1.247302    0.613655    1.151427
     30          6           0       -2.833897    1.856049   -1.071119
     31          1           0       -1.959187    3.974037   -2.537930
     32          1           0        0.398038    4.804197   -2.713176
     33          1           0        2.171586    3.675468   -1.372796
     34          1           0        3.542312    2.589089   -0.334310
     35          1           0        4.988306    1.513762    1.387414
     36          1           0        3.951661   -0.092443    3.007224
     37          6           0        1.348639   -0.908740    3.046333
     38          1           0       -3.015509    1.546729   -0.029754
     39          1           0       -2.999601    0.968818   -1.700415
     40          1           0       -3.552649    2.632396   -1.363625
     41          1           0        1.297380   -1.907870    2.587659
     42          1           0        0.315734   -0.593931    3.260882
     43          1           0        1.921279   -0.992936    3.979303
 ---------------------------------------------------------------------
 Rotational constants (GHZ):           0.1815243           0.1437370           0.1324933
 Leave Link  202 at Thu Nov  9 17:09:00 2023, MaxMem=  4718592000 cpu:               0.1 elap:               0.0
 (Enter /ssoft/spack/external/gaussian/g16-C.01/avx2/g16/l301.exe)
 General basis read from cards:  (5D, 7F)
 Centers:      17     16     15
 Def2TZVP
 ****
 Centers:       1      2      3      4      5      6      9     19     20     21
 Centers:      22     23     24     25     26     27     28     30     37      7
 Centers:       8     10     11     12     13     14     31     32     33     34
 Centers:      35     36     38     39     40     41     42     43     18     29
 Def2SVP
 ****
 ======================================================================================================
                                       Pseudopotential Parameters
 ======================================================================================================
  Center     Atomic      Valence      Angular      Power
  Number     Number     Electrons     Momentum     of R      Exponent        Coefficient   SO-Coeffient
 ======================================================================================================
    1          6
                                   No pseudopotential on this center.
    2          6
                                   No pseudopotential on this center.
    3          6
                                   No pseudopotential on this center.
    4          6
                                   No pseudopotential on this center.
    5          6
                                   No pseudopotential on this center.
    6          6
                                   No pseudopotential on this center.
    7          1
                                   No pseudopotential on this center.
    8          1
                                   No pseudopotential on this center.
    9          6
                                   No pseudopotential on this center.
   10          1
                                   No pseudopotential on this center.
   11          1
                                   No pseudopotential on this center.
   12          1
                                   No pseudopotential on this center.
   13          1
                                   No pseudopotential on this center.
   14          1
                                   No pseudopotential on this center.
   15         53           25
                                      G and up 
                                                     2        1.0000000        0.00000000    0.00000000
                                      S - G
                                                     2       40.0158350       49.99429300    0.00000000
                                                     2       17.4297470      281.02531700    0.00000000
                                                     2        9.0054840       61.57332600    0.00000000
                                      P - G
                                                     2       15.3554660       67.44284100 -134.88568300
                                                     2       14.9718330      134.88113700  134.88113700
                                                     2        8.9601640       14.67505100  -29.35010100
                                                     2        8.2590960       29.37566600   29.37566600
                                      D - G
                                                     2       15.0689080       35.43952900  -35.43952900
                                                     2       14.5553220       53.17605700   35.45070400
                                                     2        6.7186470        9.06719500   -9.06719500
                                                     2        6.4563930       13.20693700    8.80462400
                                                     2        1.1917790        0.08933500   -0.08933500
                                                     2        1.2911570        0.05238000    0.03492000
                                      F - G
                                                     2       19.4586090      -21.84204000   14.56136000
                                                     2       19.3492600      -28.46819100  -14.23409500
                                                     2        4.8237670       -0.24371300    0.16247500
                                                     2        4.8843150       -0.32080400   -0.16040200
   16         35
                                   No pseudopotential on this center.
   17         28
                                   No pseudopotential on this center.
   18          7
                                   No pseudopotential on this center.
   19          6
                                   No pseudopotential on this center.
   20          6
                                   No pseudopotential on this center.
   21          6
                                   No pseudopotential on this center.
   22          6
                                   No pseudopotential on this center.
   23          6
                                   No pseudopotential on this center.
   24          6
                                   No pseudopotential on this center.
   25          6
                                   No pseudopotential on this center.
   26          6
                                   No pseudopotential on this center.
   27          6
                                   No pseudopotential on this center.
   28          6
                                   No pseudopotential on this center.
   29          7
                                   No pseudopotential on this center.
   30          6
                                   No pseudopotential on this center.
   31          1
                                   No pseudopotential on this center.
   32          1
                                   No pseudopotential on this center.
   33          1
                                   No pseudopotential on this center.
   34          1
                                   No pseudopotential on this center.
   35          1
                                   No pseudopotential on this center.
   36          1
                                   No pseudopotential on this center.
   37          6
                                   No pseudopotential on this center.
   38          1
                                   No pseudopotential on this center.
   39          1
                                   No pseudopotential on this center.
   40          1
                                   No pseudopotential on this center.
   41          1
                                   No pseudopotential on this center.
   42          1
                                   No pseudopotential on this center.
   43          1
                                   No pseudopotential on this center.
 ======================================================================================================
 Ernie: Thresh=  0.10000D-02 Tol=  0.10000D-05 Strict=F.
 There are   576 symmetry adapted cartesian basis functions of A   symmetry.
 There are   532 symmetry adapted basis functions of A   symmetry.
   532 basis functions,   983 primitive gaussians,   576 cartesian basis functions
   118 alpha electrons      117 beta electrons
       nuclear repulsion energy      3695.1808681903 Hartrees.
 IExCor= 1009 DFT=T Ex+Corr=PBE1PBE ExCW=0 ScaHFX=  0.250000
 ScaDFX=  0.750000  0.750000  1.000000  1.000000 ScalE2=  1.000000  1.000000
 IRadAn=      5 IRanWt=     -1 IRanGd=            0 ICorTp=0 IEmpDi=141
 NAtoms=   43 NActive=   43 NUniq=   43 SFac= 1.00D+00 NAtFMM=   60 NAOKFM=F Big=F
 Integral buffers will be    131072 words long.
 Raffenetti 2 integral format.
 Two-electron integral symmetry is turned on.
 R6Disp:  Grimme-D3(BJ) Dispersion energy=       -0.0707549608 Hartrees.
 Nuclear repulsion after empirical dispersion term =     3695.1101132295 Hartrees.
 Leave Link  301 at Thu Nov  9 17:09:01 2023, MaxMem=  4718592000 cpu:               8.2 elap:               0.2
 (Enter /ssoft/spack/external/gaussian/g16-C.01/avx2/g16/l302.exe)
 NPDir=0 NMtPBC=     1 NCelOv=     1 NCel=       1 NClECP=     1 NCelD=      1
         NCelK=      1 NCelE2=     1 NClLst=     1 CellRange=     0.0.
 One-electron integrals computed using PRISM.
 One-electron integral symmetry used in STVInt
   1 Symmetry operations used in ECPInt.
 ECPInt:  NShTT=   26565 NPrTT=  103321 LenC2=   24497 LenP2D=   63928.
 LDataN:  DoStor=T MaxTD1= 7 Len=  274
 NBasis=   532 RedAO= T EigKep=  2.36D-04  NBF=   532
 NBsUse=   532 1.00D-06 EigRej= -1.00D+00 NBFU=   532
 Precomputing XC quadrature grid using
 IXCGrd= 4 IRadAn=           5 IRanWt=          -1 IRanGd=           0 AccXCQ= 0.00D+00.
 Defaulting to unpruned grid for atomic number  53.
 Generated NRdTot=       0 NPtTot=           0 NUsed=           0 NTot=          32
 NSgBfM=   571   571   571   571   571 MxSgAt=    43 MxSgA2=    43.
 Leave Link  302 at Thu Nov  9 17:09:01 2023, MaxMem=  4718592000 cpu:              22.7 elap:               0.8
 (Enter /ssoft/spack/external/gaussian/g16-C.01/avx2/g16/l303.exe)
 DipDrv:  MaxL=1.
 Leave Link  303 at Thu Nov  9 17:09:01 2023, MaxMem=  4718592000 cpu:               1.9 elap:               0.1
 (Enter /ssoft/spack/external/gaussian/g16-C.01/avx2/g16/l401.exe)
 ExpMin= 4.68D-02 ExpMax= 5.65D+05 ExpMxC= 5.46D+03 IAcc=3 IRadAn=         5 AccDes= 0.00D+00
 Harris functional with IExCor= 1009 and IRadAn=       5 diagonalized for initial guess.
 HarFok:  IExCor= 1009 AccDes= 0.00D+00 IRadAn=         5 IDoV= 1 UseB2=F ITyADJ=14
 ICtDFT=  3500011 ScaDFX=  1.000000  1.000000  1.000000  1.000000
 Defaulting to unpruned grid for atomic number  53.
 FoFCou: FMM=F IPFlag=           0 FMFlag=      100000 FMFlg1=           0
         NFxFlg=           0 DoJE=T BraDBF=F KetDBF=T FulRan=T
         wScrn=  0.000000 ICntrl=       500 IOpCl=  0 I1Cent=   200000004 NGrid=           0
         NMat0=    1 NMatS0=      1 NMatT0=    0 NMatD0=    1 NMtDS0=    0 NMtDT0=    0
 Petite list used in FoFCou.
 Harris En= -5223.58027350275    
 JPrj=0 DoOrth=F DoCkMO=F.
 Initial guess <Sx>= 0.0000 <Sy>= 0.0000 <Sz>= 0.5000 <S**2>= 0.7500 S= 0.5000
 Leave Link  401 at Thu Nov  9 17:09:03 2023, MaxMem=  4718592000 cpu:              39.5 elap:               1.1
 (Enter /ssoft/spack/external/gaussian/g16-C.01/avx2/g16/l502.exe)
 Integral symmetry usage will be decided dynamically.
 UHF open shell SCF:
 Using DIIS extrapolation, IDIIS=  1040.
 NGot=  4718592000 LenX=  4717900920 LenY=  4717568568
 Requested convergence on RMS density matrix=1.00D-08 within 128 cycles.
 Requested convergence on MAX density matrix=1.00D-06.
 Requested convergence on             energy=1.00D-06.
 No special actions if energy rises.
 Fock matrices will be formed incrementally for  20 cycles.

 Cycle   1  Pass 1  IDiag  1:
 FoFJK:  IHMeth= 1 ICntrl=       0 DoSepK=F KAlg= 0 I1Cent=           0 FoldK=F
 IRaf= 860000000 NMat=       1 IRICut=       1 DoRegI=T DoRafI=F ISym2E= 0 IDoP0=0 IntGTp=1.
 FoFCou: FMM=F IPFlag=           0 FMFlag=      100000 FMFlg1=           0
         NFxFlg=           0 DoJE=F BraDBF=F KetDBF=F FulRan=T
         wScrn=  0.000000 ICntrl=         0 IOpCl=  1 I1Cent=           0 NGrid=           0
         NMat0=    1 NMatS0=      1 NMatT0=    0 NMatD0=    1 NMtDS0=    0 NMtDT0=    0
 Symmetry not used in FoFCou.
 Defaulting to unpruned grid for atomic number  53.
 Defaulting to unpruned grid for atomic number  53.
 Defaulting to unpruned grid for atomic number  53.
 Defaulting to unpruned grid for atomic number  53.
 Defaulting to unpruned grid for atomic number  53.
 Defaulting to unpruned grid for atomic number  53.
 Defaulting to unpruned grid for atomic number  53.
 Defaulting to unpruned grid for atomic number  53.
 Defaulting to unpruned grid for atomic number  53.
 Defaulting to unpruned grid for atomic number  53.
 Defaulting to unpruned grid for atomic number  53.
 Defaulting to unpruned grid for atomic number  53.
 Defaulting to unpruned grid for atomic number  53.
 Defaulting to unpruned grid for atomic number  53.
 Defaulting to unpruned grid for atomic number  53.
 Defaulting to unpruned grid for atomic number  53.
 Defaulting to unpruned grid for atomic number  53.
 Defaulting to unpruned grid for atomic number  53.
 Defaulting to unpruned grid for atomic number  53.
 Defaulting to unpruned grid for atomic number  53.
 Defaulting to unpruned grid for atomic number  53.
 Defaulting to unpruned grid for atomic number  53.
 Defaulting to unpruned grid for atomic number  53.
 Defaulting to unpruned grid for atomic number  53.
 Defaulting to unpruned grid for atomic number  53.
 Defaulting to unpruned grid for atomic number  53.
 Defaulting to unpruned grid for atomic number  53.
 Defaulting to unpruned grid for atomic number  53.
 Defaulting to unpruned grid for atomic number  53.
 Defaulting to unpruned grid for atomic number  53.
 Defaulting to unpruned grid for atomic number  53.
 Defaulting to unpruned grid for atomic number  53.
 Defaulting to unpruned grid for atomic number  53.
 Defaulting to unpruned grid for atomic number  53.
 Defaulting to unpruned grid for atomic number  53.
 Defaulting to unpruned grid for atomic number  53.
 E= -5222.11987475853    
 DIIS: error= 3.56D-02 at cycle   1 NSaved=   1.
 NSaved= 1 IEnMin= 1 EnMin= -5222.11987475853     IErMin= 1 ErrMin= 3.56D-02
 ErrMax= 3.56D-02  0.00D+00 EMaxC= 1.00D-01 BMatC= 8.57D+00 BMatP= 8.57D+00
 IDIUse=3 WtCom= 6.44D-01 WtEn= 3.56D-01
 Coeff-Com:  0.100D+01
 Coeff-En:   0.100D+01
 Coeff:      0.100D+01
 Gap=     0.619 Goal=   None    Shift=    0.000
 Gap=    -0.015 Goal=   None    Shift=    0.000
 GapD=   -0.015 DampG=0.250 DampE=0.250 DampFc=0.1250 IDamp=-1.
 Damping current iteration by 1.25D-01
 RMSDP=4.87D-03 MaxDP=6.46D-01              OVMax= 7.87D-01

 Cycle   2  Pass 1  IDiag  1:
 RMSU=  6.04D-04    CP:  9.96D-01
 E= -5222.46853839288     Delta-E=       -0.348663634353 Rises=F Damp=T
 DIIS: error= 1.67D-02 at cycle   2 NSaved=   2.
 NSaved= 2 IEnMin= 2 EnMin= -5222.46853839288     IErMin= 2 ErrMin= 1.67D-02
 ErrMax= 1.67D-02  0.00D+00 EMaxC= 1.00D-01 BMatC= 2.91D+00 BMatP= 8.57D+00
 IDIUse=3 WtCom= 8.33D-01 WtEn= 1.67D-01
 Coeff-Com: -0.105D+01 0.205D+01
 Coeff-En:   0.000D+00 0.100D+01
 Coeff:     -0.873D+00 0.187D+01
 Gap=     0.148 Goal=   None    Shift=    0.000
 Gap=    -0.012 Goal=   None    Shift=    0.000
 RMSDP=2.53D-03 MaxDP=1.03D-01 DE=-3.49D-01 OVMax= 9.32D-01

 Cycle   3  Pass 1  IDiag  1:
 RMSU=  2.15D-03    CP:  9.72D-01  3.00D+00
 E= -5223.03215576317     Delta-E=       -0.563617370282 Rises=F Damp=F
 DIIS: error= 1.26D-02 at cycle   3 NSaved=   3.
 NSaved= 3 IEnMin= 3 EnMin= -5223.03215576317     IErMin= 3 ErrMin= 1.26D-02
 ErrMax= 1.26D-02  0.00D+00 EMaxC= 1.00D-01 BMatC= 1.12D+00 BMatP= 2.91D+00
 IDIUse=3 WtCom= 8.74D-01 WtEn= 1.26D-01
 EnCoef did   100 forward-backward iterations
 Coeff-Com: -0.102D+00 0.516D+00 0.586D+00
 Coeff-En:   0.143D+00 0.202D-02 0.855D+00
 Coeff:     -0.709D-01 0.451D+00 0.620D+00
 Gap=     0.115 Goal=   None    Shift=    0.000
 Gap=     0.106 Goal=   None    Shift=    0.000
 RMSDP=1.34D-03 MaxDP=5.49D-02 DE=-5.64D-01 OVMax= 1.06D-01

 Cycle   4  Pass 1  IDiag  1:
 RMSU=  1.06D-03    CP:  9.76D-01  2.56D+00  6.47D-01
 E= -5223.15711465633     Delta-E=       -0.124958893162 Rises=F Damp=F
 DIIS: error= 6.93D-03 at cycle   4 NSaved=   4.
 NSaved= 4 IEnMin= 4 EnMin= -5223.15711465633     IErMin= 4 ErrMin= 6.93D-03
 ErrMax= 6.93D-03  0.00D+00 EMaxC= 1.00D-01 BMatC= 3.04D-01 BMatP= 1.12D+00
 IDIUse=3 WtCom= 9.31D-01 WtEn= 6.93D-02
 Coeff-Com:  0.941D-01 0.460D-01 0.408D+00 0.452D+00
 Coeff-En:   0.000D+00 0.000D+00 0.248D+00 0.752D+00
 Coeff:      0.876D-01 0.428D-01 0.397D+00 0.473D+00
 Gap=     0.094 Goal=   None    Shift=    0.000
 Gap=     0.085 Goal=   None    Shift=    0.000
 RMSDP=7.88D-04 MaxDP=3.29D-02 DE=-1.25D-01 OVMax= 1.02D-01

 Cycle   5  Pass 1  IDiag  1:
 RMSU=  4.45D-04    CP:  9.74D-01  2.37D+00  7.99D-01  4.83D-01
 E= -5223.21261706139     Delta-E=       -0.055502405061 Rises=F Damp=F
 DIIS: error= 3.77D-03 at cycle   5 NSaved=   5.
 NSaved= 5 IEnMin= 5 EnMin= -5223.21261706139     IErMin= 5 ErrMin= 3.77D-03
 ErrMax= 3.77D-03  0.00D+00 EMaxC= 1.00D-01 BMatC= 9.51D-02 BMatP= 3.04D-01
 IDIUse=3 WtCom= 9.62D-01 WtEn= 3.77D-02
 Coeff-Com: -0.451D-01 0.824D-01 0.122D+00 0.302D+00 0.539D+00
 Coeff-En:   0.000D+00 0.000D+00 0.000D+00 0.243D+00 0.757D+00
 Coeff:     -0.434D-01 0.793D-01 0.117D+00 0.300D+00 0.547D+00
 Gap=     0.108 Goal=   None    Shift=    0.000
 Gap=     0.096 Goal=   None    Shift=    0.000
 RMSDP=3.22D-04 MaxDP=1.53D-02 DE=-5.55D-02 OVMax= 4.88D-02

 Cycle   6  Pass 1  IDiag  1:
 RMSU=  1.86D-04    CP:  9.74D-01  2.48D+00  7.71D-01  6.35D-01  5.77D-01
 E= -5223.23070095208     Delta-E=       -0.018083890687 Rises=F Damp=F
 DIIS: error= 1.06D-03 at cycle   6 NSaved=   6.
 NSaved= 6 IEnMin= 6 EnMin= -5223.23070095208     IErMin= 6 ErrMin= 1.06D-03
 ErrMax= 1.06D-03  0.00D+00 EMaxC= 1.00D-01 BMatC= 8.51D-03 BMatP= 9.51D-02
 IDIUse=3 WtCom= 9.89D-01 WtEn= 1.06D-02
 Coeff-Com: -0.198D-01 0.181D-01 0.227D-01 0.128D+00 0.339D+00 0.512D+00
 Coeff-En:   0.000D+00 0.000D+00 0.000D+00 0.000D+00 0.404D-01 0.960D+00
 Coeff:     -0.196D-01 0.179D-01 0.225D-01 0.127D+00 0.336D+00 0.517D+00
 Gap=     0.107 Goal=   None    Shift=    0.000
 Gap=     0.093 Goal=   None    Shift=    0.000
 RMSDP=1.25D-04 MaxDP=9.45D-03 DE=-1.81D-02 OVMax= 2.43D-02

 Cycle   7  Pass 1  IDiag  1:
 RMSU=  9.43D-05    CP:  9.74D-01  2.54D+00  7.72D-01  6.37D-01  7.12D-01
                    CP:  8.02D-01
 E= -5223.23279554627     Delta-E=       -0.002094594196 Rises=F Damp=F
 DIIS: error= 3.55D-04 at cycle   7 NSaved=   7.
 NSaved= 7 IEnMin= 7 EnMin= -5223.23279554627     IErMin= 7 ErrMin= 3.55D-04
 ErrMax= 3.55D-04  0.00D+00 EMaxC= 1.00D-01 BMatC= 7.62D-04 BMatP= 8.51D-03
 IDIUse=3 WtCom= 9.96D-01 WtEn= 3.55D-03
 Coeff-Com: -0.884D-02 0.568D-02-0.849D-02 0.128D-01 0.927D-01 0.251D+00
 Coeff-Com:  0.655D+00
 Coeff-En:   0.000D+00 0.000D+00 0.000D+00 0.000D+00 0.000D+00 0.000D+00
 Coeff-En:   0.100D+01
 Coeff:     -0.881D-02 0.566D-02-0.846D-02 0.127D-01 0.923D-01 0.250D+00
 Coeff:      0.656D+00
 Gap=     0.108 Goal=   None    Shift=    0.000
 Gap=     0.091 Goal=   None    Shift=    0.000
 RMSDP=7.19D-05 MaxDP=5.38D-03 DE=-2.09D-03 OVMax= 2.00D-02

 Cycle   8  Pass 1  IDiag  1:
 RMSU=  5.49D-05    CP:  9.74D-01  2.53D+00  7.73D-01  6.42D-01  7.55D-01
                    CP:  1.02D+00  1.11D+00
 E= -5223.23340678070     Delta-E=       -0.000611234424 Rises=F Damp=F
 DIIS: error= 2.98D-04 at cycle   8 NSaved=   8.
 NSaved= 8 IEnMin= 8 EnMin= -5223.23340678070     IErMin= 8 ErrMin= 2.98D-04
 ErrMax= 2.98D-04  0.00D+00 EMaxC= 1.00D-01 BMatC= 2.91D-04 BMatP= 7.62D-04
 IDIUse=3 WtCom= 9.97D-01 WtEn= 2.98D-03
 Coeff-Com:  0.157D-02-0.256D-02-0.861D-02-0.222D-01-0.305D-01 0.575D-02
 Coeff-Com:  0.334D+00 0.723D+00
 Coeff-En:   0.000D+00 0.000D+00 0.000D+00 0.000D+00 0.000D+00 0.000D+00
 Coeff-En:   0.000D+00 0.100D+01
 Coeff:      0.157D-02-0.256D-02-0.858D-02-0.221D-01-0.305D-01 0.573D-02
 Coeff:      0.333D+00 0.723D+00
 Gap=     0.109 Goal=   None    Shift=    0.000
 Gap=     0.090 Goal=   None    Shift=    0.000
 RMSDP=7.06D-05 MaxDP=5.04D-03 DE=-6.11D-04 OVMax= 2.63D-02

 Cycle   9  Pass 1  IDiag  1:
 RMSU=  3.12D-05    CP:  9.74D-01  2.54D+00  7.71D-01  6.47D-01  7.93D-01
                    CP:  1.17D+00  1.58D+00  1.54D+00
 E= -5223.23390772410     Delta-E=       -0.000500943408 Rises=F Damp=F
 DIIS: error= 3.31D-04 at cycle   9 NSaved=   9.
 NSaved= 9 IEnMin= 9 EnMin= -5223.23390772410     IErMin= 8 ErrMin= 2.98D-04
 ErrMax= 3.31D-04  0.00D+00 EMaxC= 1.00D-01 BMatC= 2.97D-04 BMatP= 2.91D-04
 IDIUse=3 WtCom= 9.97D-01 WtEn= 2.98D-03
 Coeff-Com: -0.440D-02 0.757D-02 0.558D-03-0.115D-01-0.375D-01-0.589D-01
 Coeff-Com: -0.822D-01 0.385D+00 0.801D+00
 Coeff-En:   0.000D+00 0.000D+00 0.000D+00 0.000D+00 0.000D+00 0.000D+00
 Coeff-En:   0.000D+00 0.000D+00 0.100D+01
 Coeff:     -0.439D-02 0.754D-02 0.556D-03-0.115D-01-0.373D-01-0.587D-01
 Coeff:     -0.820D-01 0.384D+00 0.802D+00
 Gap=     0.111 Goal=   None    Shift=    0.000
 Gap=     0.089 Goal=   None    Shift=    0.000
 RMSDP=7.34D-05 MaxDP=4.92D-03 DE=-5.01D-04 OVMax= 2.65D-02

 Cycle  10  Pass 1  IDiag  1:
 RMSU=  1.69D-05    CP:  9.74D-01  2.55D+00  7.68D-01  6.48D-01  8.28D-01
                    CP:  1.33D+00  1.99D+00  2.36D+00  1.58D+00
 E= -5223.23438706033     Delta-E=       -0.000479336230 Rises=F Damp=F
 DIIS: error= 2.78D-04 at cycle  10 NSaved=  10.
 NSaved=10 IEnMin=10 EnMin= -5223.23438706033     IErMin=10 ErrMin= 2.78D-04
 ErrMax= 2.78D-04  0.00D+00 EMaxC= 1.00D-01 BMatC= 2.01D-04 BMatP= 2.91D-04
 IDIUse=3 WtCom= 9.97D-01 WtEn= 2.78D-03
 Coeff-Com: -0.138D-01 0.190D-01 0.875D-02 0.164D-01 0.185D-01 0.101D-02
 Coeff-Com: -0.303D+00-0.399D+00 0.139D+00 0.151D+01
 Coeff-En:   0.000D+00 0.000D+00 0.000D+00 0.000D+00 0.000D+00 0.000D+00
 Coeff-En:   0.000D+00 0.000D+00 0.000D+00 0.100D+01
 Coeff:     -0.138D-01 0.189D-01 0.872D-02 0.164D-01 0.185D-01 0.101D-02
 Coeff:     -0.302D+00-0.398D+00 0.139D+00 0.151D+01
 Gap=     0.114 Goal=   None    Shift=    0.000
 Gap=     0.087 Goal=   None    Shift=    0.000
 RMSDP=1.36D-04 MaxDP=8.91D-03 DE=-4.79D-04 OVMax= 5.04D-02

 Cycle  11  Pass 1  IDiag  1:
 RMSU=  4.99D-05    CP:  9.74D-01  2.57D+00  7.61D-01  6.52D-01  8.91D-01
                    CP:  1.60D+00  2.71D+00  3.00D+00  3.00D+00  2.37D+00
 E= -5223.23506141666     Delta-E=       -0.000674356321 Rises=F Damp=F
 DIIS: error= 1.68D-04 at cycle  11 NSaved=  11.
 NSaved=11 IEnMin=11 EnMin= -5223.23506141666     IErMin=11 ErrMin= 1.68D-04
 ErrMax= 1.68D-04  0.00D+00 EMaxC= 1.00D-01 BMatC= 9.39D-05 BMatP= 2.01D-04
 IDIUse=3 WtCom= 9.98D-01 WtEn= 1.68D-03
 Coeff-Com: -0.789D-02 0.952D-02 0.761D-02 0.227D-01 0.430D-01 0.544D-01
 Coeff-Com: -0.153D+00-0.570D+00-0.824D+00 0.118D+01 0.123D+01
 Coeff-En:   0.000D+00 0.000D+00 0.000D+00 0.000D+00 0.000D+00 0.000D+00
 Coeff-En:   0.000D+00 0.000D+00 0.000D+00 0.000D+00 0.100D+01
 Coeff:     -0.787D-02 0.951D-02 0.759D-02 0.227D-01 0.429D-01 0.543D-01
 Coeff:     -0.153D+00-0.569D+00-0.823D+00 0.118D+01 0.123D+01
 Gap=     0.117 Goal=   None    Shift=    0.000
 Gap=     0.084 Goal=   None    Shift=    0.000
 RMSDP=1.72D-04 MaxDP=1.19D-02 DE=-6.74D-04 OVMax= 6.69D-02

 Cycle  12  Pass 1  IDiag  1:
 RMSU=  8.82D-05    CP:  9.74D-01  2.61D+00  7.49D-01  6.54D-01  9.68D-01
                    CP:  1.92D+00  3.00D+00  3.00D+00  3.00D+00  3.00D+00
                    CP:  3.00D+00
 E= -5223.23541638569     Delta-E=       -0.000354969037 Rises=F Damp=F
 DIIS: error= 1.86D-04 at cycle  12 NSaved=  12.
 NSaved=12 IEnMin=12 EnMin= -5223.23541638569     IErMin=11 ErrMin= 1.68D-04
 ErrMax= 1.86D-04  0.00D+00 EMaxC= 1.00D-01 BMatC= 1.69D-04 BMatP= 9.39D-05
 IDIUse=3 WtCom= 9.98D-01 WtEn= 1.68D-03
 Coeff-Com: -0.377D-02 0.439D-02 0.637D-03 0.138D-02 0.766D-02 0.286D-01
 Coeff-Com:  0.505D-01 0.647D-01-0.397D+00-0.202D+00 0.800D+00 0.645D+00
 Coeff-En:   0.000D+00 0.000D+00 0.000D+00 0.000D+00 0.000D+00 0.000D+00
 Coeff-En:   0.000D+00 0.000D+00 0.000D+00 0.000D+00 0.000D+00 0.100D+01
 Coeff:     -0.376D-02 0.438D-02 0.636D-03 0.137D-02 0.765D-02 0.286D-01
 Coeff:      0.504D-01 0.646D-01-0.396D+00-0.201D+00 0.798D+00 0.645D+00
 Gap=     0.117 Goal=   None    Shift=    0.000
 Gap=     0.084 Goal=   None    Shift=    0.000
 RMSDP=1.39D-05 MaxDP=7.42D-04 DE=-3.55D-04 OVMax= 2.14D-03

 Cycle  13  Pass 1  IDiag  1:
 RMSU=  1.31D-05    CP:  9.74D-01  2.61D+00  7.48D-01  6.54D-01  9.66D-01
                    CP:  1.92D+00  3.00D+00  3.00D+00  3.00D+00  3.00D+00
                    CP:  3.00D+00  9.62D-01
 E= -5223.23544382744     Delta-E=       -0.000027441747 Rises=F Damp=F
 DIIS: error= 4.77D-05 at cycle  13 NSaved=  13.
 NSaved=13 IEnMin=13 EnMin= -5223.23544382744     IErMin=13 ErrMin= 4.77D-05
 ErrMax= 4.77D-05  0.00D+00 EMaxC= 1.00D-01 BMatC= 2.03D-05 BMatP= 9.39D-05
 IDIUse=1 WtCom= 1.00D+00 WtEn= 0.00D+00
 Coeff-Com:  0.674D-03-0.102D-02-0.825D-03-0.361D-02-0.522D-02 0.121D-02
 Coeff-Com:  0.516D-01 0.126D+00-0.122D+00-0.267D+00 0.304D+00 0.373D+00
 Coeff-Com:  0.543D+00
 Coeff:      0.674D-03-0.102D-02-0.825D-03-0.361D-02-0.522D-02 0.121D-02
 Coeff:      0.516D-01 0.126D+00-0.122D+00-0.267D+00 0.304D+00 0.373D+00
 Coeff:      0.543D+00
 Gap=     0.117 Goal=   None    Shift=    0.000
 Gap=     0.084 Goal=   None    Shift=    0.000
 RMSDP=5.31D-06 MaxDP=2.25D-04 DE=-2.74D-05 OVMax= 1.06D-03

 Cycle  14  Pass 1  IDiag  1:
 RMSU=  4.83D-06    CP:  9.74D-01  2.61D+00  7.48D-01  6.54D-01  9.66D-01
                    CP:  1.92D+00  3.00D+00  3.00D+00  3.00D+00  3.00D+00
                    CP:  3.00D+00  9.76D-01  8.78D-01
 E= -5223.23544881850     Delta-E=       -0.000004991061 Rises=F Damp=F
 DIIS: error= 2.46D-05 at cycle  14 NSaved=  14.
 NSaved=14 IEnMin=14 EnMin= -5223.23544881850     IErMin=14 ErrMin= 2.46D-05
[...]
 038,-0.00000366,-0.00000615,-0.00000911,-0.00000290,-0.00000486,0.0000
 0515,0.00000669,-0.00001028,0.00000771,-0.00000820,-0.00002294,-0.0000
 1392,-0.03256416,0.13349922,-0.14772695,-0.00005936,-0.00029834,0.0001
 5070,-0.00000584,-0.00011697,0.00011546,-0.00001821,-0.00002027,0.0000
 4490,0.00000583,-0.00000064,-0.00000106,0.00000055,0.00000228,-0.00000
 351,0.00000261,0.00000381,-0.00000297,0.00001870,0.00000946,0.00000528
 ,-0.00585761,0.02311524,-0.01503526,0.03501997,-0.14340607,0.15582545,
 -0.00024012,0.00010371,-0.00010343,0.00001243,-0.00001650,0.00002199,0
 .00001976,-0.00002198,0.00000796,0.00000563,-0.00000845,-0.00001467,-0
 .00001811,-0.00001310,0.00001994,0.00002986,0.00000247,0.00004321,-0.0
 0000240,0.00002084,-0.00003978,0.00000127,0.00000281,-0.00000216,-0.00
 000190,0.00000214,-0.00000395,-0.00000070,-0.00000105,-0.00000031,0.00
 000003,-0.00000042,0.00000072,0.00000178,0.00000102,-0.00000004,-0.000
 00193,0.00000190,-0.00000298,-0.00000301,0.00000230,-0.00001701,0.0002
 9722,0.00023008,0.00002298,0.00008995,0.00008165,0.00012172,-0.0002513
 1,0.00034140,0.00032693,-0.00663491,0.00148194,0.00128726,-0.01613894,
 -0.02385896,-0.00677264,0.00104700,-0.00088033,-0.00152940,0.00011588,
 0.00012276,-0.00027495,-0.00005634,0.00010571,0.00012978,-0.00016342,-
 0.00024549,-0.00112494,-0.00022882,0.00032486,0.00007338,-0.00006181,-
 0.00010248,-0.00010261,-0.00003509,0.00001596,0.00003145,0.00001152,-0
 .00002309,-0.00001469,-0.00003149,0.00003176,0.00003702,0.00000694,-0.
 00005277,-0.00007127,-0.16291820,-0.13199938,-0.03186123,0.00010279,0.
 00061208,0.00082954,0.00002407,-0.00005369,0.00004671,0.00000845,0.000
 02519,0.00013315,0.00001502,0.00000540,0.00000500,-0.00000913,-0.00000
 382,-0.00001246,-0.00000291,0.00000103,-0.00000478,0.00001109,-0.00000
 695,-0.00000649,0.00319708,0.00498771,0.00048998,0.00454221,0.00542969
 ,0.00204005,0.17728068,0.00045185,-0.00010922,0.00006720,-0.00008169,0
 .00001406,0.00000026,0.00000359,0.00001382,-0.00001075,-0.00002058,-0.
 00000916,0.00002354,0.00003674,0.00002582,-0.00002836,-0.00013922,-0.0
 0001697,-0.00005088,0.00001817,-0.00002023,0.00000168,-0.00001494,0.00
 000140,0.00000835,0.00000620,0.00001467,-0.00000236,-0.00000465,-0.000
 00631,-0.00000151,-0.00000980,-0.00000270,0.00000730,-0.00002083,0.000
 00158,-0.00000328,-0.00001153,-0.00000814,-0.00000185,0.00001153,0.000
 00188,0.00003568,-0.00055086,-0.00079403,-0.00009887,-0.00000348,-0.00
 004575,-0.00027092,0.00013001,-0.00017201,0.00002047,0.00227593,-0.000
 30704,-0.00043583,0.01015626,0.00864453,0.00243966,0.00159988,-0.00009
 563,-0.00034803,-0.00027583,0.00035073,-0.00002710,0.00009777,0.000298
 34,0.00024674,0.00093484,-0.00024477,0.00044949,0.00002117,-0.00019840
 ,-0.00003107,0.00004883,0.00005494,0.00004561,0.00000338,-0.00000417,-
 0.00003124,-0.00002023,0.00002826,0.00001889,0.00003926,-0.00000040,0.
 00000632,-0.00001419,0.00002881,0.00003088,-0.13848385,-0.20057112,-0.
 04157775,0.00007230,0.00007935,0.00012774,-0.00006470,0.00001762,-0.00
 001199,-0.00001377,-0.00002521,0.00003191,-0.00001048,-0.00000281,0.00
 000487,0.00000164,-0.00000166,0.00000646,-0.00000301,-0.00000496,0.000
 00452,-0.00001333,-0.00000172,-0.00000186,-0.00469414,-0.00568355,0.00
 153622,-0.01484681,-0.01398179,-0.00675424,0.14336500,0.21271331,-0.00
 010013,0.00019253,-0.00013442,-0.00006153,-0.00002661,0.00000200,0.000
 00698,0.00000532,0.00002809,-0.00001485,0.00000395,0.00000669,0.000039
 48,-0.00003182,0.00000798,-0.00006515,-0.00004113,0.00001958,-0.000000
 92,0.00000904,0.00002064,-0.00000817,0.00000093,0.00000286,0.00000194,
 0.00000601,-0.00000115,-0.00000132,-0.00000089,0.00000058,-0.00000270,
 -0.00000199,0.00000081,-0.00000845,0.00000174,-0.00000160,-0.00000518,
 -0.00000044,-0.00000224,0.00000045,0.00001306,-0.00002171,0.00035439,0
 .00024108,0.00020854,-0.00022002,-0.00023814,-0.00064308,0.00026414,0.
 00016653,-0.00017091,0.00005565,-0.00041381,0.00084898,0.00113394,0.00
 481484,-0.00155611,0.00137099,-0.00038308,-0.00030712,-0.00064225,0.00
 034980,-0.00027734,0.00036232,0.00029557,0.00022733,-0.00003427,-0.000
 41875,0.00047448,-0.00001159,-0.00008690,-0.00004629,0.00004878,0.0000
 4700,0.00001760,-0.00000687,-0.00001971,-0.00003080,-0.00002683,0.0000
 3808,0.00001934,0.00004394,-0.00004587,-0.00002244,-0.00001651,-0.0000
 0707,0.00003037,-0.03318760,-0.04267679,-0.05627310,0.00020417,-0.0004
 7758,0.00019363,-0.00005624,0.00003106,-0.00000736,-0.00003971,-0.0000
 1802,0.00003629,-0.00001597,-0.00000182,0.00000288,-0.00000025,-0.0000
 0309,0.00000538,0.00000133,0.00000010,0.00000161,-0.00004096,0.0000070
 2,0.00000556,-0.01947178,-0.01909664,0.00011515,0.01378416,0.01319567,
 0.00415368,0.03630280,0.04455293,0.05304670,-0.00023472,0.00013433,0.0
 0008010,0.00004873,-0.00004735,-0.00007365,-0.00015252,-0.00018237,-0.
 00003558,-0.00033307,0.00026396,0.00020256,0.00043053,0.00022932,0.000
 13885,0.00025874,-0.00046399,-0.00042504,-0.00001249,0.00001834,0.0000
 1006,-0.00002222,-0.00001480,-0.00001329,-0.00000538,0.00006061,-0.000
 02812,-0.00002146,-0.00003495,0.00001988,-0.00000782,-0.00001233,-0.00
 001872,-0.00003479,0.00001636,0.00002240,-0.00018873,-0.00039606,0.000
 15908,-0.00018772,0.00055930,-0.00051633,0.00011723,0.00000985,0.00003
 438,0.00027233,0.00053750,-0.00010234,0.00017702,-0.00033918,-0.000211
 34,-0.00000211,-0.00001860,0.00001429,0.00005070,0.00002017,0.00000327
 ,0.00001190,0.00000293,-0.00000979,-0.00002224,-0.00001294,-0.00000772
 ,0.00001092,0.00003943,0.00002421,-0.00002511,-0.00005837,-0.00005698,
 -0.00095697,0.00040784,0.00098793,0.00070536,0.00002557,0.00020327,-0.
 00051547,-0.00113752,0.00022655,-0.00073113,0.00033043,0.00217944,-0.0
 0345137,0.01441195,-0.00495352,-0.00001447,-0.00104285,-0.00245736,-0.
 00000781,0.00001115,0.00001409,0.00000060,-0.00000323,0.00000050,-0.00
 000166,0.00000013,0.00000232,0.00000140,0.00000090,-0.00000265,0.00003
 424,0.00010353,-0.00008956,-0.00001072,0.00018431,-0.00006435,-0.00003
 274,0.00047530,-0.00040007,-0.03938075,0.01487494,-0.00829907,-0.00000
 600,-0.00000881,-0.00002618,-0.00000577,-0.00001072,-0.00000710,-0.000
 00077,0.00000566,0.00000585,0.04161618,-0.00015992,-0.00025504,-0.0002
 0085,-0.00012175,0.00009489,-0.00003676,-0.00000267,0.00022653,0.00008
 363,0.00024117,-0.00024663,-0.00028579,0.00000093,0.00004709,0.0007308
 6,0.00005099,-0.00036582,0.00120737,0.00001252,0.00000032,0.00000647,-
 0.00000487,-0.00001935,0.00003254,0.00000823,-0.00001223,0.00003100,-0
 .00000573,0.00000210,-0.00000641,-0.00001156,0.00000086,0.00000656,-0.
 00002231,0.00000145,-0.00000277,-0.00010647,0.00008837,-0.00001698,0.0
 0018404,0.00011692,0.00068296,0.00011135,-0.00003915,0.00005325,0.0000
 9631,0.00019850,-0.00017652,-0.00022812,-0.00043222,0.00010081,-0.0000
 5100,0.00005536,-0.00010080,0.00003120,-0.00003358,-0.00003238,-0.0000
 6359,0.00002335,0.00002551,0.00003810,0.00002104,0.00002765,-0.0000503
 9,-0.00006685,-0.00004884,0.00016629,0.00013048,0.00010118,0.00079401,
 0.00031777,-0.00101668,-0.00007412,-0.00018664,0.00009486,0.00025435,0
 .00024554,-0.00086869,-0.00101934,-0.00011715,-0.00091422,0.00189291,-
 0.01885960,0.00627343,0.00092657,0.00045276,0.00053666,0.00000271,0.00
 004582,0.00000775,-0.00000376,0.00000165,0.00000162,-0.00000185,-0.000
 00041,-0.00000496,-0.00000301,0.00002616,0.00002259,-0.00002984,-0.000
 10729,0.00009166,0.00004124,-0.00009939,-0.00003574,-0.00001075,-0.000
 26954,0.00020229,0.01456428,-0.26799656,0.10971000,-0.00001228,-0.0000
 1738,-0.00001451,-0.00001457,-0.00001400,-0.00001027,-0.00000211,0.000
 00981,0.00000697,-0.01885908,0.28946222,-0.00068941,-0.00085019,0.0003
 3645,0.00028804,0.00010295,0.00000071,-0.00015724,-0.00009750,-0.00007
 231,0.00015072,0.00007830,0.00018050,0.00063045,0.00023864,-0.00060703
 ,0.00015058,0.00036686,-0.00098154,-0.00001895,0.00001058,0.00005251,-
 0.00000188,0.00003065,0.00003209,0.00000255,0.00004309,0.00002316,-0.0
 0000217,-0.00001716,-0.00000522,-0.00003379,0.00000216,0.00001027,-0.0
 0006186,-0.00001037,0.00001039,0.00014656,0.00009710,-0.00002799,-0.00
 061876,0.00072657,-0.00072575,-0.00017809,0.00010404,-0.00004128,0.000
 02352,-0.00003921,-0.00000682,-0.00014595,-0.00028624,-0.00026623,0.00
 000984,0.00004380,-0.00007940,-0.00000566,-0.00004510,-0.00004453,-0.0
 0007295,0.00003483,0.00002411,0.00006482,0.00003057,0.00004211,-0.0000
 6237,-0.00009683,-0.00007643,0.00016896,0.00013929,0.00009720,0.000650
 56,0.00112328,-0.00100203,-0.00021070,-0.00028290,-0.00055260,0.000223
 08,0.00084795,0.00000166,0.00099275,0.00007537,-0.00135246,0.00010700,
 -0.02004841,0.01173155,-0.00050174,-0.00014673,-0.00080110,-0.00000728
 ,0.00003187,-0.00000455,-0.00000435,-0.00000002,0.00000858,-0.00000093
 ,-0.00000067,-0.00000444,-0.00000005,0.00002784,0.00002627,-0.00005110
 ,-0.00012782,0.00013122,0.00001712,-0.00017483,0.00006955,0.00009092,-
 0.00000795,0.00009826,-0.00700625,0.10659235,-0.09396811,-0.00001278,-
 0.00001781,0.00000037,-0.00001326,-0.00002059,-0.00000766,-0.00000132,
 0.00001097,0.00000453,0.00730743,-0.11657509,0.10054854,0.00029813,0.0
 0034762,-0.00023499,-0.00021307,-0.00004423,0.00000717,-0.00000064,-0.
 00002008,0.00003754,-0.00015283,0.00005782,0.00008922,0.00018066,-0.00
 003584,-0.00012407,-0.00037796,-0.00014869,0.00002585,0.00001737,0.000
 00760,-0.00000845,-0.00003008,-0.00000451,0.00001350,0.00002448,0.0000
 1721,-0.00001519,-0.00001502,-0.00001195,0.00000789,-0.00001486,-0.000
 00580,-0.00000622,-0.00005998,0.00001156,-0.00000072,-0.00007642,-0.00
 008464,0.00002120,0.00010000,0.00000574,0.00003071,0.00019648,-0.00007
 093,0.00011760,-0.00217490,-0.00028574,0.00141395,0.00175357,0.0000180
 9,-0.00116811,-0.00033106,-0.00009175,0.00011500,0.00033983,-0.0002436
 9,-0.00013832,-0.00021822,0.00012826,0.00000109,0.00013293,0.00004501,
 0.00005741,-0.00015075,-0.00010374,-0.00015405,0.00022050,0.00009758,0
 .00017537,0.00031767,0.00071595,0.00001014,-0.00020338,-0.00048766,-0.
 00060647,-0.00040078,0.00067762,0.00040545,0.00108805,-0.00026295,0.00
 137611,-0.01274004,0.00078955,0.00481181,0.00005743,-0.00180703,-0.003
 05844,-0.00005881,0.00011337,0.00009115,-0.00000105,-0.00001501,-0.000
 00268,-0.00000979,-0.00000651,0.00000223,-0.00000845,0.00003956,0.0000
 3143,0.00001375,-0.00007000,0.00007988,-0.00000147,0.00008932,0.000045
 98,0.00009725,-0.00004215,0.00007361,-0.28517332,-0.07722461,0.0589256
 4,-0.00008650,-0.00016645,-0.00024111,-0.00002121,-0.00002532,-0.00000
 862,-0.00002379,0.00002967,0.00007230,0.00385211,0.00232002,-0.0016221
 7,0.30247707,0.00018834,0.00008608,-0.00006139,-0.00013037,0.00003447,
 0.00005824,0.00010448,0.00011842,0.00005470,0.00011088,-0.00014750,-0.
 00012973,-0.00026069,-0.00008367,0.00007857,0.00001849,0.00022752,-0.0
 0008240,0.00000447,-0.00000345,-0.00000602,-0.00000046,0.00000528,0.00
 000844,0.00000531,-0.00002307,0.00000957,0.00000257,0.00000739,-0.0000
 0425,-0.00000389,0.00000402,0.00000204,-0.00001458,0.00000090,-0.00000
 092,0.00005902,0.00010757,-0.00004399,-0.00003584,-0.00014535,0.000054
 88,-0.00000919,-0.00004693,0.00002265,-0.00047976,-0.00110700,0.000539
 37,0.00033762,0.00030985,-0.00037485,-0.00010099,-0.00000783,0.0000773
 5,0.00002926,-0.00007262,-0.00004937,-0.00006276,0.00003923,0.00000186
 ,0.00004592,0.00002253,0.00001431,-0.00002996,-0.00004621,-0.00007468,
 0.00008586,0.00001695,0.00014749,0.00004320,-0.00044362,0.00029495,-0.
 00006834,0.00006101,-0.00005465,0.00081655,-0.00081093,0.00054706,0.00
 082485,-0.00297543,-0.00243890,0.02405552,0.00607647,-0.00595602,-0.00
 001539,0.00124726,0.00122521,-0.00001823,0.00001071,0.00000990,-0.0000
 0148,-0.00000156,-0.00000136,-0.00000139,-0.00000296,0.00000164,-0.000
 00287,0.00001675,0.00001091,-0.00002001,0.00006191,-0.00007594,0.00015
 093,-0.00014955,-0.00022334,0.00000003,0.00020838,-0.00027314,-0.07848
 753,-0.06734259,0.01739036,-0.00000831,-0.00004684,-0.00003765,0.00000
 013,-0.00000009,-0.00000656,-0.00000619,0.00000543,0.00001212,-0.02607
 215,-0.00693005,0.00546804,0.07838254,0.07325212,-0.00011103,0.0003455
 8,-0.00021304,-0.00011550,-0.00004983,-0.00003299,-0.00006351,-0.00004
 771,0.00005129,-0.00014411,0.00013867,0.00016113,0.00025715,-0.0000660
 3,-0.00015039,-0.00022542,-0.00024288,0.00008566,0.00000766,0.00002201
 ,0.00000148,-0.00002621,-0.00000480,0.00001809,0.00002322,0.00000270,-
 0.00000832,-0.00000839,-0.00000054,-0.00000018,-0.00001051,0.00000252,
 -0.00000189,-0.00005145,0.00000606,-0.00000882,-0.00005027,-0.00006801
 ,0.00001610,0.00000971,0.00015128,-0.00004805,0.00038667,-0.00005729,0
 .00009340,0.00048609,0.00039611,-0.00026168,-0.00006160,-0.00045083,-0
 .00138810,-0.00002830,0.00002993,0.00004378,0.00008719,-0.00009870,-0.
 00007647,-0.00012057,0.00006551,0.00003470,0.00009251,0.00005338,0.000
 02985,-0.00005850,-0.00008251,-0.00011327,0.00016855,0.00006205,0.0002
 5936,0.00063257,-0.00052584,-0.00006067,-0.00078292,-0.00019305,-0.000
 61204,0.00053056,0.00033296,0.00147223,0.00087762,-0.00296148,-0.00193
 392,0.01756558,0.00847021,-0.00482852,-0.00011712,0.00072292,0.0016925
 7,-0.00002893,0.00004793,0.00002112,-0.00000270,-0.00000357,0.00000560
 ,-0.00000231,-0.00000307,0.00000317,-0.00000798,0.00002513,0.00002548,
 -0.00004949,0.00000186,0.00001695,0.00009771,-0.00003608,-0.00018669,0
 .00026565,0.00008900,-0.00000358,0.05774502,0.01550612,-0.06299201,-0.
 00001004,-0.00004449,-0.00008159,-0.00001432,-0.00001965,-0.00000102,-
 0.00000556,0.00001307,0.00001215,0.01229150,0.00295922,-0.00341871,-0.
 06529955,-0.01646253,0.06384568,0.00013521,-0.00015251,0.00008991,0.00
 004202,0.00001786,0.00001687,0.00005621,0.00005203,-0.00001095,0.00004
 926,-0.00007997,-0.00010526,-0.00018009,0.00006509,0.00003558,0.000166
 75,0.00015031,-0.00012141,-0.00000408,-0.00001592,0.00000298,0.0000141
 4,-0.00000100,-0.00001127,-0.00000347,-0.00001530,0.00000356,0.0000041
 0,0.00000113,0.00000232,0.00000680,0.00000126,-0.00000444,0.00002474,0
 .00000449,0.00000711,0.00000255,-0.00001025,0.00000947,0.00003579,-0.0
 0011991,0.00005458,-0.00024300,0.00002990,-0.00005127,-0.00110306,-0.0
 0054465,-0.00022461,-0.00025969,0.00013834,0.00042499,0.00004572,-0.00
 000047,-0.00002613,-0.00006838,0.00004684,0.00003215,0.00004911,-0.000
 03380,-0.00000813,-0.00004045,-0.00000635,0.00000433,0.00007396,0.0000
 2769,0.00007796,-0.00017504,0.00011524,-0.00004571,0.00025745,0.000982
 80,0.00003253,0.00035478,0.00013514,0.00033886,0.00026852,-0.00066749,
 -0.00018056,-0.00043882,0.00096494,0.00136484,0.00776100,-0.00054381,0
 .01320171,-0.00055632,0.00194842,0.00153391,0.00001927,-0.00003203,-0.
 00002295,0.00000133,0.00000510,-0.00000254,0.00000620,0.00000517,-0.00
 000244,0.00000522,-0.00001018,-0.00001416,0.00000216,0.00001008,-0.000
 04961,0.00002549,-0.00007725,-0.00005069,-0.00015769,0.00038358,-0.000
 09036,-0.13473639,-0.01290205,-0.13148139,0.00001492,0.00004329,0.0000
 6792,0.00000973,0.00001509,0.00000507,0.00000445,-0.00001176,-0.000014
 33,-0.00122198,-0.00087815,0.00045611,-0.00862291,0.00056443,-0.024128
 65,0.13837449,-0.00024970,-0.00024973,0.00003114,0.00003689,0.00006189
 ,-0.00004753,-0.00009796,0.00003615,0.00002831,0.00004846,0.00003025,0
 .00001439,0.00018198,0.00007963,0.00010783,0.00017742,-0.00026432,0.00
 034999,-0.00000484,0.00000346,0.00001391,0.00000103,-0.00001147,0.0000
 1162,0.00000467,0.00001721,0.00000672,-0.00000307,-0.00001412,0.000003
 51,-0.00000646,0.00000006,-0.00000187,-0.00000939,0.00000577,0.0000013
 7,0.00000466,-0.00001170,0.00000154,-0.00016312,0.00022102,0.00007615,
 -0.00001030,0.00003005,-0.00000991,-0.00012630,-0.00002888,-0.00013291
 ,0.00029002,-0.00022526,0.00011689,-0.00004830,-0.00000556,-0.00003933
 ,0.00001428,0.00000455,-0.00000968,-0.00000569,-0.00000623,-0.00000153
 ,0.00001080,-0.00001764,-0.00002086,-0.00009823,-0.00002158,-0.0000348
 3,0.00018249,-0.00022583,-0.00002419,-0.00050664,-0.00060166,-0.000458
 81,0.00007805,0.00004848,0.00009429,-0.00015153,-0.00029017,0.00000743
 ,-0.00118739,0.00015184,0.00042644,-0.01366166,-0.00301554,-0.01724502
 ,0.00214805,-0.00252768,-0.00433125,-0.00000234,-0.00000193,-0.0000053
 3,-0.00000149,-0.00000291,0.00000162,-0.00000792,-0.00000490,-0.000006
 57,0.00000484,0.00000544,0.00000216,0.00007698,0.00003545,-0.00002459,
 0.00000476,0.00003584,-0.00000155,0.00041420,0.00034967,-0.00003031,-0
 .01107683,-0.04440427,-0.01780407,-0.00000418,0.00000181,0.00000724,-0
 .00000490,-0.00000507,-0.00000237,-0.00000265,0.00000338,-0.00000117,0
 .01599149,0.00449991,0.02261831,-0.00263480,-0.00153300,-0.00802533,0.
 01039463,0.04784763,0.00019786,0.00006476,0.00012084,0.00004065,-0.000
 00999,0.00001046,0.00000020,-0.00001784,-0.00001731,-0.00005081,0.0000
 2472,0.00005040,-0.00012243,-0.00007594,-0.00011445,-0.00004410,0.0000
 6907,-0.00020755,0.00000358,-0.00000761,0.00000087,0.00000150,0.000002
 37,-0.00000182,-0.00000669,-0.00002510,0.00000664,0.00000660,0.0000242
 8,-0.00000808,0.00001233,0.00000447,0.00000396,0.00001231,-0.00001717,
 -0.00001047,0.00001196,0.00003213,-0.00000279,0.00007086,-0.00009989,-
 0.00001169,-0.00012121,0.00002882,-0.00001886,0.00026365,0.00012241,0.
 00016645,0.00041102,-0.00009892,-0.00018244,-0.00007733,-0.00001690,0.
 00000819,0.00005900,-0.00001646,-0.00000158,-0.00001705,0.00000916,-0.
 00000342,0.00002650,-0.00001978,-0.00000828,-0.00008802,-0.00002558,-0
 .00005211,0.00018716,-0.00015965,-0.00008047,-0.00080335,-0.00016910,0
 .00043342,0.00024624,-0.00004388,-0.00005743,-0.00001409,-0.00011837,0
 .00022613,-0.00155373,0.00033447,0.00108622,-0.01255441,0.00220663,-0.
 01345011,0.00171179,-0.00279619,-0.00306231,-0.00001132,0.00000598,0.0
 0000725,-0.00000213,-0.00000284,-0.00000368,-0.00000757,-0.00000676,-0
 .00000413,0.00000484,0.00001187,0.00000800,0.00008862,0.00006655,-0.00
 001449,-0.00000711,0.00004598,-0.00002436,0.00094414,0.00004153,0.0001
 5736,-0.12621893,-0.02137641,-0.24074178,-0.00000178,-0.00000943,-0.00
 002292,0.00000130,0.00000388,0.00000512,-0.00000492,-0.00000286,0.0000
 0222,-0.00612920,-0.00264857,-0.00938382,0.00464997,0.00032799,0.00853
 217,0.13888410,0.02433816,0.25666065\\0.00000226,0.00000159,-0.0000001
 8,-0.00000158,-0.00000065,-0.00000051,-0.00000037,-0.00000002,-0.00000
 045,0.00000082,0.00000090,0.00000051,-0.00000033,0.00000118,-0.0000019
 1,-0.00000096,-0.00000015,-0.00000004,0.00000033,-0.00000034,0.0000001
 9,-0.00000005,0.00000002,0.00000009,0.00000005,0.00000022,-0.00000017,
 -0.00000007,-0.00000027,0.00000054,0.00000012,0.00000006,0.00000039,0.
 00000011,-0.00000034,0.00000030,-0.00000002,0.00000012,-0.00000007,0.0
 0000031,-0.00000051,0.00000105,0.00000128,0.00000089,-0.00000176,-0.00
 000089,-0.00000023,0.00000007,-0.00000026,-0.00000066,0.00000091,0.000
 00092,0.00000024,0.00000019,-0.00000024,-0.00000025,-0.00000014,0.0000
 0018,-0.00000011,0.00000007,0.00000038,0.00000009,-0.00000020,0.000000
 01,-0.00000012,-0.00000007,-0.00000005,0.00000033,-0.00000027,-0.00000
 029,-0.00000017,0.00000034,-0.00000019,0.00000013,-0.00000020,-0.00000
 001,0.00000013,0.00000041,0.00000014,0.00000069,-0.00000085,-0.0000001
 7,0.00000042,-0.00000023,-0.00000109,-0.00000222,0.00000160,-0.0000002
 8,-0.00000069,-0.00000010,0.00000019,0.,-0.00000020,0.00000018,0.00000
 005,-0.00000011,0.,-0.00000001,0.00000007,0.00000004,0.00000002,0.0000
 0019,-0.00000010,-0.00000005,0.00000027,-0.00000024,0.,0.00000024,0.,0
 .00000018,0.00000049,0.00000020,-0.00000017,-0.00000031,0.00000025,0.0
 0000027,-0.00000031,0.00000018,0.00000032,-0.00000080,0.00000008,-0.00
 000046,0.00000090,-0.00000042,0.00000008,-0.00000027,-0.00000042,-0.00
 000048,0.00000033\\\@
 The archive entry for this job was punched.


 THE MORE POWERFUL THE METHOD, THE MORE CATASTROPHIC THE ERRORS.
     -- M.D. KAMEN
 Job cpu time:       0 days 12 hours 39 minutes 24.5 seconds.
 Elapsed time:       0 days  0 hours 21 minutes 23.4 seconds.
 File lengths (MBytes):  RWF=   2794 Int=      0 D2E=      0 Chk=     33 Scr=      1
 Normal termination of Gaussian 16 at Thu Nov  9 18:11:24 2023.
