 Entering Gaussian System, Link 0=g16
 Initial command:
 /ssoft/spack/external/gaussian/g16-C.01/avx2/g16/l1.exe "/tmp/gallarat/12050426.slurm/Gau-615848.inp" -scrdir="/tmp/gallarat/12050426.slurm/"
 Entering Link 1 = /ssoft/spack/external/gaussian/g16-C.01/avx2/g16/l1.exe PID=    615850.
  
 Copyright (c) 1988-2019, Gaussian, Inc.  All Rights Reserved.
  
 This is part of the Gaussian(R) 16 program.  It is based on
 the Gaussian(R) 09 system (copyright 2009, Gaussian, Inc.),
 the Gaussian(R) 03 system (copyright 2003, Gaussian, Inc.),
 the Gaussian(R) 98 system (copyright 1998, Gaussian, Inc.),
 the Gaussian(R) 94 system (copyright 1995, Gaussian, Inc.),
 the Gaussian 92(TM) system (copyright 1992, Gaussian, Inc.),
 the Gaussian 90(TM) system (copyright 1990, Gaussian, Inc.),
 the Gaussian 88(TM) system (copyright 1988, Gaussian, Inc.),
 the Gaussian 86(TM) system (copyright 1986, Carnegie Mellon
 University), and the Gaussian 82(TM) system (copyright 1983,
 Carnegie Mellon University). Gaussian is a federally registered
 trademark of Gaussian, Inc.
  
 This software contains proprietary and confidential information,
 including trade secrets, belonging to Gaussian, Inc.
  
 This software is provided under written license and may be
 used, copied, transmitted, or stored only in accord with that
 written license.
  
 The following legend is applicable only to US Government
 contracts under FAR:
  
                    RESTRICTED RIGHTS LEGEND
  
 Use, reproduction and disclosure by the US Government is
 subject to restrictions as set forth in subparagraphs (a)
 and (c) of the Commercial Computer Software - Restricted
 Rights clause in FAR 52.227-19.
  
 Gaussian, Inc.
 340 Quinnipiac St., Bldg. 40, Wallingford CT 06492
  
  
 ---------------------------------------------------------------
 Warning -- This program may not be used in any manner that
 competes with the business of Gaussian, Inc. or will provide
 assistance to any competitor of Gaussian, Inc.  The licensee
 of this program is prohibited from giving any competitor of
 Gaussian, Inc. access to this program.  By using this program,
 the user acknowledges that Gaussian, Inc. is engaged in the
 business of creating and licensing software in the field of
 computational chemistry and represents and warrants to the
 licensee that it is not a competitor of Gaussian, Inc. and that
 it will not use this program in any manner prohibited above.
 ---------------------------------------------------------------
  

 Cite this work as:
 Gaussian 16, Revision C.01,
 M. J. Frisch, G. W. Trucks, H. B. Schlegel, G. E. Scuseria, 
 M. A. Robb, J. R. Cheeseman, G. Scalmani, V. Barone, 
 G. A. Petersson, H. Nakatsuji, X. Li, M. Caricato, A. V. Marenich, 
 J. Bloino, B. G. Janesko, R. Gomperts, B. Mennucci, H. P. Hratchian, 
 J. V. Ortiz, A. F. Izmaylov, J. L. Sonnenberg, D. Williams-Young, 
 F. Ding, F. Lipparini, F. Egidi, J. Goings, B. Peng, A. Petrone, 
 T. Henderson, D. Ranasinghe, V. G. Zakrzewski, J. Gao, N. Rega, 
 G. Zheng, W. Liang, M. Hada, M. Ehara, K. Toyota, R. Fukuda, 
 J. Hasegawa, M. Ishida, T. Nakajima, Y. Honda, O. Kitao, H. Nakai, 
 T. Vreven, K. Throssell, J. A. Montgomery, Jr., J. E. Peralta, 
 F. Ogliaro, M. J. Bearpark, J. J. Heyd, E. N. Brothers, K. N. Kudin, 
 V. N. Staroverov, T. A. Keith, R. Kobayashi, J. Normand, 
 K. Raghavachari, A. P. Rendell, J. C. Burant, S. S. Iyengar, 
 J. Tomasi, M. Cossi, J. M. Millam, M. Klene, C. Adamo, R. Cammi, 
 J. W. Ochterski, R. L. Martin, K. Morokuma, O. Farkas, 
 J. B. Foresman, and D. J. Fox, Gaussian, Inc., Wallingford CT, 2019.
 
 ******************************************
 Gaussian 16:  ES64L-G16RevC.01  3-Jul-2019
                14-Nov-2023 
 ******************************************
 %nprocs=36
 Will use up to   36 processors via shared memory.
 %mem=36000MB
 %chk=Cat1_TSOA_CfA_SPC.chk
 ----------------------------------------------
 #p m06/Def2TZVP scrf=(smd,solvent=1,4-Dioxane)
 ----------------------------------------------
 1/38=1,172=1/1;
 2/12=2,17=6,18=5,40=1/2;
 3/5=44,7=101,11=2,25=1,30=1,70=32201,72=31,74=-54/1,2,3;
 4//1;
 5/5=2,38=5,53=31/2;
 6/7=2,8=2,9=2,10=2,28=1/1;
 99/5=1,9=1/99;
 Leave Link    1 at Tue Nov 14 12:30:00 2023, MaxMem=  4718592000 cpu:               0.6 elap:               0.0
 (Enter /ssoft/spack/external/gaussian/g16-C.01/avx2/g16/l101.exe)
 -----------------
 Cat1_TSOA_CfA_SPC
 -----------------
 Symbolic Z-matrix:
 Charge =  0 Multiplicity = 2
 C                     0.22603  -1.19978  -0.99096 
 C                     0.90659  -0.47294  -1.9881 
 C                     2.25794  -0.69441  -2.20019 
 C                     2.9686   -1.67291  -1.48219 
 C                     2.24817  -2.47187  -0.58801 
 C                     0.88906  -2.26967  -0.36121 
 H                     0.37955   0.29309  -2.56 
 H                     2.78525  -0.08675  -2.94208 
 C                     4.4463   -1.84179  -1.66788 
 H                     4.78739  -2.83013  -1.328 
 H                     4.74166  -1.72226  -2.72125 
 H                     5.00235  -1.08478  -1.087 
 H                     2.76187  -3.27727  -0.05431 
 H                     0.34065  -2.92108   0.3233 
 I                    -2.03754  -1.50852  -1.23796 
 Br                   -1.94603  -0.09941   2.50715 
 Ni                   -0.60265  -0.07825   0.52973 
 N                    -0.47066   1.79228  -0.3133 
 C                    -1.4872    2.51039  -0.8128 
 C                    -1.23648   3.70934  -1.49392 
 C                     0.06682   4.16231  -1.63204 
 C                     1.09906   3.43833  -1.04572 
 C                     0.79061   2.2564   -0.37402 
 C                     1.80386   1.48867   0.38877 
 C                     3.15859   1.82149   0.38698 
 C                     4.01813   1.11213   1.21721 
 C                     3.49898   0.11726   2.03299 
 C                     2.13172  -0.18246   1.97721 
 N                     1.32566   0.48765   1.14308 
 C                    -2.88061   2.01997  -0.61039 
 H                    -2.07521   4.27587  -1.90157 
 H                     0.27896   5.09078  -2.1668 
 H                     2.1234    3.80506  -1.0909 
 H                     3.53977   2.62099  -0.24673 
 H                     5.0845    1.34785   1.23759 
 H                     4.13989  -0.43932   2.71873 
 C                     1.53846  -1.244     2.84008 
 H                    -2.97607   1.54222   0.37707 
 H                    -3.13542   1.25768  -1.36197 
 H                    -3.59683   2.84758  -0.69752 
 H                     1.43716  -2.18102   2.27177 
 H                     0.52738  -0.95327   3.16355 
 H                     2.17606  -1.44162   3.71178 
 
 ITRead=  0  0  0  0  0  0  0  0  0  0  0  0  0  0  0  0  0  0  0  0
 ITRead=  0  0  0  0  0  0  0  0  0  0  0  0  0  0  0  0  0  0  0  0
 ITRead=  0  0  0
 MicOpt= -1 -1 -1 -1 -1 -1 -1 -1 -1 -1 -1 -1 -1 -1 -1 -1 -1 -1 -1 -1
 MicOpt= -1 -1 -1 -1 -1 -1 -1 -1 -1 -1 -1 -1 -1 -1 -1 -1 -1 -1 -1 -1
 MicOpt= -1 -1 -1
 NAtoms=     43 NQM=       43 NQMF=       0 NMMI=      0 NMMIF=      0
                NMic=       0 NMicF=      0.
                    Isotopes and Nuclear Properties:
 (Nuclear quadrupole moments (NQMom) in fm**2, nuclear magnetic moments (NMagM)
  in nuclear magnetons)

  Atom         1           2           3           4           5           6           7           8           9          10
 IAtWgt=          12          12          12          12          12          12           1           1          12           1
 AtmWgt=  12.0000000  12.0000000  12.0000000  12.0000000  12.0000000  12.0000000   1.0078250   1.0078250  12.0000000   1.0078250
 NucSpn=           0           0           0           0           0           0           1           1           0           1
 AtZEff=  -0.0000000  -0.0000000  -0.0000000  -0.0000000  -0.0000000  -0.0000000  -0.0000000  -0.0000000  -0.0000000  -0.0000000
 NQMom=    0.0000000   0.0000000   0.0000000   0.0000000   0.0000000   0.0000000   0.0000000   0.0000000   0.0000000   0.0000000
 NMagM=    0.0000000   0.0000000   0.0000000   0.0000000   0.0000000   0.0000000   2.7928460   2.7928460   0.0000000   2.7928460
 AtZNuc=   6.0000000   6.0000000   6.0000000   6.0000000   6.0000000   6.0000000   1.0000000   1.0000000   6.0000000   1.0000000

  Atom        11          12          13          14          15          16          17          18          19          20
 IAtWgt=           1           1           1           1         127          79          58          14          12          12
 AtmWgt=   1.0078250   1.0078250   1.0078250   1.0078250 126.9004000  78.9183361  57.9353471  14.0030740  12.0000000  12.0000000
 NucSpn=           1           1           1           1           5           3           0           2           0           0
 AtZEff=  -0.0000000  -0.0000000  -0.0000000  -0.0000000  -0.0000000  -0.0000000  -0.0000000  -0.0000000  -0.0000000  -0.0000000
 NQMom=    0.0000000   0.0000000   0.0000000   0.0000000 -71.0000000  31.3000000   0.0000000   2.0440000   0.0000000   0.0000000
 NMagM=    2.7928460   2.7928460   2.7928460   2.7928460   2.8132800   2.1063990   0.0000000   0.4037610   0.0000000   0.0000000
 AtZNuc=   1.0000000   1.0000000   1.0000000   1.0000000  53.0000000  35.0000000  28.0000000   7.0000000   6.0000000   6.0000000

  Atom        21          22          23          24          25          26          27          28          29          30
 IAtWgt=          12          12          12          12          12          12          12          12          14          12
 AtmWgt=  12.0000000  12.0000000  12.0000000  12.0000000  12.0000000  12.0000000  12.0000000  12.0000000  14.0030740  12.0000000
 NucSpn=           0           0           0           0           0           0           0           0           2           0
 AtZEff=  -0.0000000  -0.0000000  -0.0000000  -0.0000000  -0.0000000  -0.0000000  -0.0000000  -0.0000000  -0.0000000  -0.0000000
 NQMom=    0.0000000   0.0000000   0.0000000   0.0000000   0.0000000   0.0000000   0.0000000   0.0000000   2.0440000   0.0000000
 NMagM=    0.0000000   0.0000000   0.0000000   0.0000000   0.0000000   0.0000000   0.0000000   0.0000000   0.4037610   0.0000000
 AtZNuc=   6.0000000   6.0000000   6.0000000   6.0000000   6.0000000   6.0000000   6.0000000   6.0000000   7.0000000   6.0000000

  Atom        31          32          33          34          35          36          37          38          39          40
 IAtWgt=           1           1           1           1           1           1          12           1           1           1
 AtmWgt=   1.0078250   1.0078250   1.0078250   1.0078250   1.0078250   1.0078250  12.0000000   1.0078250   1.0078250   1.0078250
 NucSpn=           1           1           1           1           1           1           0           1           1           1
 AtZEff=  -0.0000000  -0.0000000  -0.0000000  -0.0000000  -0.0000000  -0.0000000  -0.0000000  -0.0000000  -0.0000000  -0.0000000
 NQMom=    0.0000000   0.0000000   0.0000000   0.0000000   0.0000000   0.0000000   0.0000000   0.0000000   0.0000000   0.0000000
 NMagM=    2.7928460   2.7928460   2.7928460   2.7928460   2.7928460   2.7928460   0.0000000   2.7928460   2.7928460   2.7928460
 AtZNuc=   1.0000000   1.0000000   1.0000000   1.0000000   1.0000000   1.0000000   6.0000000   1.0000000   1.0000000   1.0000000

  Atom        41          42          43
 IAtWgt=           1           1           1
 AtmWgt=   1.0078250   1.0078250   1.0078250
 NucSpn=           1           1           1
 AtZEff=  -0.0000000  -0.0000000  -0.0000000
 NQMom=    0.0000000   0.0000000   0.0000000
 NMagM=    2.7928460   2.7928460   2.7928460
 AtZNuc=   1.0000000   1.0000000   1.0000000
 Leave Link  101 at Tue Nov 14 12:30:00 2023, MaxMem=  4718592000 cpu:               2.0 elap:               0.1
 (Enter /ssoft/spack/external/gaussian/g16-C.01/avx2/g16/l202.exe)
                          Input orientation:                          
 ---------------------------------------------------------------------
 Center     Atomic      Atomic             Coordinates (Angstroms)
 Number     Number       Type             X           Y           Z
 ---------------------------------------------------------------------
      1          6           0        0.226025   -1.199781   -0.990960
      2          6           0        0.906590   -0.472939   -1.988097
      3          6           0        2.257942   -0.694406   -2.200195
      4          6           0        2.968596   -1.672907   -1.482188
      5          6           0        2.248169   -2.471870   -0.588012
      6          6           0        0.889059   -2.269669   -0.361212
      7          1           0        0.379547    0.293085   -2.559998
      8          1           0        2.785251   -0.086750   -2.942078
      9          6           0        4.446304   -1.841789   -1.667876
     10          1           0        4.787385   -2.830132   -1.328000
     11          1           0        4.741661   -1.722257   -2.721249
     12          1           0        5.002351   -1.084775   -1.086998
     13          1           0        2.761867   -3.277266   -0.054314
     14          1           0        0.340645   -2.921081    0.323299
     15         53           0       -2.037543   -1.508522   -1.237956
     16         35           0       -1.946028   -0.099408    2.507149
     17         28           0       -0.602652   -0.078248    0.529733
     18          7           0       -0.470662    1.792281   -0.313301
     19          6           0       -1.487198    2.510389   -0.812804
     20          6           0       -1.236484    3.709338   -1.493919
     21          6           0        0.066821    4.162311   -1.632043
     22          6           0        1.099058    3.438328   -1.045717
     23          6           0        0.790607    2.256396   -0.374024
     24          6           0        1.803856    1.488673    0.388765
     25          6           0        3.158586    1.821489    0.386982
     26          6           0        4.018133    1.112129    1.217212
     27          6           0        3.498983    0.117259    2.032990
     28          6           0        2.131723   -0.182462    1.977209
     29          7           0        1.325664    0.487645    1.143077
     30          6           0       -2.880605    2.019969   -0.610393
     31          1           0       -2.075207    4.275871   -1.901568
     32          1           0        0.278964    5.090782   -2.166796
     33          1           0        2.123397    3.805062   -1.090897
     34          1           0        3.539767    2.620991   -0.246727
     35          1           0        5.084504    1.347853    1.237592
     36          1           0        4.139887   -0.439316    2.718728
     37          6           0        1.538455   -1.243996    2.840080
     38          1           0       -2.976069    1.542219    0.377073
     39          1           0       -3.135418    1.257681   -1.361965
     40          1           0       -3.596833    2.847581   -0.697515
     41          1           0        1.437159   -2.181022    2.271773
     42          1           0        0.527381   -0.953267    3.163553
     43          1           0        2.176065   -1.441619    3.711776
 ---------------------------------------------------------------------
                    Distance matrix (angstroms):
                    1          2          3          4          5
     1  C    0.000000
     2  C    1.409166   0.000000
     3  C    2.417921   1.385708   0.000000
     4  C    2.826101   2.438798   1.406424   0.000000
     5  C    2.422735   2.784923   2.399710   1.398895   0.000000
     6  C    1.407429   2.423902   2.781574   2.436634   1.392661
     7  H    2.171197   1.091622   2.152432   3.424905   3.876268
     8  H    3.405193   2.142099   1.094391   2.163513   3.393948
     9  C    4.322169   3.808657   2.527604   1.498874   2.528815
    10  H    4.855682   4.588317   3.423468   2.161235   2.668998
    11  H    4.863934   4.099522   2.738035   2.163670   3.366025
    12  H    4.778676   4.238111   2.987202   2.153656   3.123866
    13  H    3.409361   3.878894   3.395572   2.157667   1.094249
    14  H    2.168707   3.414124   3.873258   3.424011   2.161233
    15  I    2.297840   3.209838   4.476592   5.014788   4.440472
    16  Br   4.262089   5.337058   6.339280   6.522594   5.727118
    17  Ni   2.063262   2.961935   4.001894   4.398247   3.886639
    18  N    3.145954   3.135759   4.145993   5.020191   5.064631
    19  C    4.090505   4.001472   5.120707   6.148345   6.231084
    20  C    5.146975   4.725296   5.665933   6.830183   7.153377
    21  C    5.402626   4.724143   5.358312   6.518629   7.061207
    22  C    4.719877   4.027795   4.444696   5.459890   6.038244
    23  C    3.555914   3.173004   3.767652   4.627211   4.952452
    24  C    3.408955   3.209748   3.416832   3.853917   4.103341
    25  C    4.430204   3.997110   3.719459   3.967455   4.495821
    26  C    4.959943   4.740058   4.247412   4.018049   4.385961
    27  C    4.646625   4.820578   4.485403   3.980261   3.890730
    28  C    3.671056   4.160406   4.210549   3.858654   3.440248
    29  N    2.934404   3.301908   3.666586   3.776139   3.550551
    30  C    4.490297   4.738724   6.024945   6.972124   6.817730
    31  H    6.008963   5.608012   6.600683   7.810492   8.120900
    32  H    6.399732   5.601860   6.114399   7.310971   7.972705
    33  H    5.353360   4.537277   4.636147   5.556583   6.298280
    34  H    5.112051   4.420225   4.055980   4.504460   5.265162
    35  H    5.921292   5.583486   4.896800   4.582495   5.095872
    36  H    5.445953   5.710476   5.272816   4.532258   4.317916
    37  C    4.049851   4.930018   5.120945   4.572884   3.709876
    38  H    4.432097   4.972920   6.248174   7.009488   6.658601
    39  H    4.180438   4.441274   5.796689   6.772133   6.594813
    40  H    5.575078   5.742149   7.005863   8.009705   7.903961
    41  H    3.615952   4.620124   4.783535   4.086038   2.986754
    42  H    4.172716   5.187872   5.641954   5.297199   4.397898
    43  H    5.096751   5.919329   5.959566   5.259169   4.422080
                    6          7          8          9         10
     6  C    0.000000
     7  H    3.414963   0.000000
     8  H    3.875764   2.465293   0.000000
     9  C    3.813718   4.678897   2.731822   0.000000
    10  H    4.055335   5.540879   3.760310   1.099397   0.000000
    11  H    4.551041   4.807873   2.559529   1.100508   1.780624
    12  H    4.341648   5.043664   3.058252   1.104390   1.774983
    13  H    2.148685   4.970041   4.303385   2.738887   2.434118
    14  H    1.092543   4.318076   4.967114   4.688932   4.744318
    15  I    3.148496   3.291794   5.308937   6.506625   6.952295
    16  Br   4.579874   5.589126   7.216594   7.831260   8.216086
    17  Ni   2.796661   3.263287   4.850921   5.782000   6.330603
    18  N    4.283757   2.831623   4.587177   6.262419   7.074134
    19  C    5.357190   3.384355   5.434405   7.408039   8.255724
    20  C    6.445889   3.926686   5.716800   7.946027   8.892648
    21  C    6.607681   3.991216   5.211581   7.431714   8.442181
    22  C    5.752728   3.564168   4.343456   6.282577   7.278532
    23  C    4.527154   2.966824   4.007972   5.642100   6.538889
    24  C    3.940108   3.486157   3.813084   4.722741   5.522753
    25  C    4.737945   4.329407   3.855307   4.393207   5.218403
    26  C    4.870224   5.308244   4.500778   4.151228   4.755131
    27  C    4.270987   5.554938   5.030143   4.293215   4.652241
    28  C    3.371774   4.886974   4.963431   4.625721   4.998710
    29  N    3.171165   3.826977   4.375936   4.802719   5.394199
    30  C    5.716070   4.172730   6.478962   8.349553   9.101456
    31  H    7.348718   4.724609   6.613560   8.944858   9.895425
    32  H    7.603196   4.814833   5.804255   8.104084   9.152613
    33  H    6.241665   4.187273   4.360175   6.133166   7.153939
    34  H    5.563984   4.556025   3.894364   4.770522   5.695651
    35  H    5.765796   6.137658   4.981395   4.361520   4.911833
    36  H    4.837779   6.522386   5.831301   4.615530   4.744603
    37  C    3.423739   5.732934   6.027194   5.397649   5.517632
    38  H    5.478574   4.631078   6.845664   8.409813   9.071711
    39  H    5.444274   3.836757   6.273641   8.196512   8.915278
    40  H    6.813411   5.079950   7.374236   9.360761  10.145395
    41  H    2.690889   5.530439   5.778198   4.968991   4.960214
    42  H    3.779907   5.859546   6.567158   6.284118   6.468717
    43  H    4.351009   6.750691   6.817665   5.852758   5.843484
                   11         12         13         14         15
    11  H    0.000000
    12  H    1.773448   0.000000
    13  H    3.667449   3.300488   0.000000
    14  H    5.484104   5.205042   2.476242   0.000000
    15  I    6.942870   7.054251   5.250124   3.176259   0.000000
    16  Br   8.642625   7.884720   6.230903   4.237914   4.002473
    17  Ni   6.467869   5.919711   4.679190   3.002353   2.688740
    18  N    6.731902   6.231367   6.018025   4.824859   3.769006
    19  C    7.768921   7.423923   7.219890   5.842312   4.078637
    20  C    8.169870   7.878589   8.177525   7.053515   5.285194
    21  C    7.593987   7.224157   8.068445   7.353420   6.061518
    22  C    6.535105   5.974601   6.989064   6.549159   5.860593
    23  C    6.078649   5.423149   5.882984   5.243567   4.787423
    24  C    5.349108   4.362440   4.881422   4.646633   5.136706
    25  C    4.972460   3.744123   5.133170   5.516957   6.381940
    26  C    4.905987   3.332335   4.739385   5.530803   7.040375
    27  C    5.246985   3.665969   4.052527   4.704216   6.632901
    28  C    5.590908   4.294652   3.755260   3.666526   5.429411
    29  N    5.611214   4.578621   4.203686   3.641663   4.578773
    30  C    8.749795   8.485728   7.759344   5.971784   3.681690
    31  H    9.116968   8.915822   9.157484   7.910910   5.822457
    32  H    8.163368   7.849449   8.980624   8.390133   7.055477
    33  H    6.329661   5.674407   7.186203   7.100645   6.750498
    34  H    5.141168   4.071598   5.952444   6.424475   7.010121
    35  H    5.021508   3.365731   5.334359   6.447009   8.062926
    36  H    5.621514   3.955251   4.200317   5.131421   7.413447
    37  C    6.435654   5.238880   3.742785   3.252929   5.430296
    38  H    8.934190   8.526417   7.505827   5.560983   3.577174
    39  H    8.530888   8.472661   7.553388   5.690798   2.978689
    40  H    9.721595   9.463672   8.852148   7.058559   4.658229
    41  H    6.005037   5.019332   2.892626   2.355118   4.984376
    42  H    7.278901   6.173316   4.555060   3.460376   5.124493
    43  H    6.931439   5.580633   4.230390   4.127875   6.500678
                   16         17         18         19         20
    16  Br   0.000000
    17  Ni   2.390665   0.000000
    18  N    3.702719   2.055968   0.000000
    19  C    4.247782   3.047272   1.341092   0.000000
    20  C    5.569429   4.340820   2.378119   1.401518   0.000000
    21  C    6.272696   4.806642   2.764961   2.411426   1.386675
    22  C    5.866087   4.212383   2.389545   2.757542   2.393551
    23  C    4.619539   2.865050   1.345321   2.333546   2.733917
    24  C    4.590336   2.875134   2.399689   3.649481   4.209456
    25  C    5.851670   4.216194   3.696308   4.847409   5.139884
    26  C    6.221172   4.820921   4.791071   6.031979   6.458074
    27  C    5.469910   4.372804   4.906003   6.219937   6.911351
    28  C    4.112881   3.095619   3.989794   5.303980   6.208032
    29  N    3.592950   2.101149   2.655165   3.978587   4.888523
    30  C    3.883846   3.300223   2.438838   1.490995   2.517483
    31  H    6.212611   5.199807   3.356393   2.155943   1.091143
    32  H    7.330377   5.896388   3.857135   3.407499   2.158178
    33  H    6.689622   5.013769   3.374179   3.845765   3.385320
    34  H    6.714041   5.004839   4.095697   5.059946   5.054954
    35  H    7.289357   5.905808   5.784691   6.981610   7.279605
    36  H    6.099071   5.235814   5.952343   7.268876   7.991439
    37  C    3.682736   3.358722   4.816569   6.049260   7.142783
    38  H    2.879783   2.877903   2.610788   2.137732   3.350100
    39  H    4.269237   3.431928   2.913146   2.141841   3.103866
    40  H    4.656154   4.362537   3.321780   2.139521   2.635931
    41  H    3.979255   3.408400   5.109748   6.330546   7.484995
    42  H    2.697720   2.996605   4.541215   5.645074   6.822254
    43  H    4.499367   4.439082   5.802113   7.036312   8.079425
                   21         22         23         24         25
    21  C    0.000000
    22  C    1.390483   0.000000
    23  C    2.395619   1.394015   0.000000
    24  C    3.774824   2.521038   1.482538   0.000000
    25  C    4.372061   2.984703   2.524995   1.395014   0.000000
    26  C    5.747585   4.364980   3.776017   2.393978   1.389710
    27  C    6.447841   5.125190   4.207722   2.730880   2.393661
    28  C    6.013948   4.828519   3.643476   2.328807   2.756645
    29  N    4.773798   3.680856   2.390891   1.341533   2.389649
    30  C    3.784272   4.247230   3.686403   4.819208   6.124213
    31  H    2.161903   3.392627   3.824207   5.297285   6.217237
    32  H    1.092256   2.158698   3.392573   4.672406   5.049978
    33  H    2.156379   1.088947   2.165318   2.767158   2.681474
    34  H    4.044270   2.695085   2.776151   2.167806   1.089077
    35  H    6.429084   5.046520   4.675501   3.391606   2.158015
    36  H    7.529545   6.201114   5.296192   3.821375   3.392820
    37  C    7.168943   6.100545   4.810664   3.680606   4.247318
    38  H    4.490057   4.714469   3.906667   4.780239   6.141016
    39  H    4.331761   4.773471   4.169788   5.245459   6.556766
    40  H    4.003026   4.745695   4.438894   5.673982   6.918431
    41  H    7.573340   6.534305   5.206626   4.140875   4.747193
    42  H    7.027019   6.109900   4.783898   3.910487   4.725659
    43  H    8.025543   6.899824   5.682303   4.446072   4.761037
                   26         27         28         29         30
    26  C    0.000000
    27  C    1.387363   0.000000
    28  C    2.410831   1.400837   0.000000
    29  N    2.764935   2.377487   1.339608   0.000000
    30  C    7.194227   7.162885   6.055561   4.807845   0.000000
    31  H    7.540878   7.990394   7.253958   5.931816   2.721193
    32  H    6.423595   7.262414   6.957916   5.765389   4.672811
    33  H    4.021104   5.025017   5.031271   4.078268   5.334555
    34  H    2.156065   3.386362   3.845495   3.374162   6.458688
    35  H    1.092304   2.158911   3.407024   3.857171   8.204252
    36  H    2.162488   1.091224   2.156049   3.355858   8.149751
    37  C    3.786004   2.519540   1.491096   2.433861   6.487474
    38  H    7.057597   6.833657   5.623566   4.494863   1.101112
    39  H    7.605697   7.539334   6.400537   5.173920   1.100397
    40  H    8.041497   8.078423   7.010825   5.760907   1.097959
    41  H    4.314901   3.096810   2.136218   2.899684   6.678195
    42  H    4.498828   3.354790   2.139034   2.606877   5.890430
    43  H    4.017175   2.645474   2.143867   3.323170   7.498910
                   31         32         33         34         35
    31  H    0.000000
    32  H    2.505304   0.000000
    33  H    4.301991   2.492502   0.000000
    34  H    6.083178   4.518780   2.029963   0.000000
    35  H    8.347998   6.978008   4.497543   2.492046   0.000000
    36  H    9.066836   8.328088   6.049316   4.303434   2.506000
    37  C    8.124698   8.172181   6.425552   5.335893   4.675480
    38  H    3.671050   5.445990   5.768878   6.633928   8.108706
    39  H    3.244178   5.196000   5.849595   6.903656   8.621656
    40  H    2.409378   4.713018   5.813136   7.154412   9.019947
    41  H    8.452512   8.597758   6.900121   5.815766   5.179345
    42  H    7.731287   8.062559   6.579461   5.786173   5.456359
    43  H    9.070426   8.990487   7.113094   5.833886   4.728822
                   36         37         38         39         40
    36  H    0.000000
    37  C    2.725745   0.000000
    38  H    7.748978   5.848959   0.000000
    39  H    8.512457   6.764663   1.769352   0.000000
    40  H    9.073657   7.458335   1.801127   1.783866   0.000000
    41  H    3.246236   1.100569   6.076923   6.777698   7.710032
    42  H    3.675896   1.100649   5.125045   6.227736   6.809070
    43  H    2.418130   1.097932   6.824076   7.825658   8.435961
                   41         42         43
    41  H    0.000000
    42  H    1.769279   0.000000
    43  H    1.779412   1.804770   0.000000
 Stoichiometry    C19H19BrIN2Ni(2)
 Framework group  C1[X(C19H19BrIN2Ni)]
 Deg. of freedom   123
 Full point group                 C1      NOp   1
 Largest Abelian subgroup         C1      NOp   1
 Largest concise Abelian subgroup C1      NOp   1
                         Standard orientation:                         
 ---------------------------------------------------------------------
 Center     Atomic      Atomic             Coordinates (Angstroms)
 Number     Number       Type             X           Y           Z
 ---------------------------------------------------------------------
      1          6           0        0.226025   -1.199781   -0.990960
      2          6           0        0.906590   -0.472939   -1.988097
      3          6           0        2.257942   -0.694406   -2.200195
      4          6           0        2.968596   -1.672907   -1.482188
      5          6           0        2.248169   -2.471870   -0.588012
      6          6           0        0.889059   -2.269669   -0.361212
      7          1           0        0.379547    0.293085   -2.559998
      8          1           0        2.785251   -0.086750   -2.942078
      9          6           0        4.446304   -1.841789   -1.667876
     10          1           0        4.787385   -2.830132   -1.328000
     11          1           0        4.741661   -1.722257   -2.721249
     12          1           0        5.002351   -1.084775   -1.086998
     13          1           0        2.761867   -3.277266   -0.054314
     14          1           0        0.340645   -2.921081    0.323299
     15         53           0       -2.037543   -1.508522   -1.237956
     16         35           0       -1.946028   -0.099408    2.507149
     17         28           0       -0.602652   -0.078248    0.529733
     18          7           0       -0.470662    1.792281   -0.313301
     19          6           0       -1.487198    2.510389   -0.812804
     20          6           0       -1.236484    3.709338   -1.493919
     21          6           0        0.066821    4.162311   -1.632043
     22          6           0        1.099058    3.438328   -1.045717
     23          6           0        0.790607    2.256396   -0.374024
     24          6           0        1.803856    1.488673    0.388765
     25          6           0        3.158586    1.821489    0.386982
     26          6           0        4.018133    1.112129    1.217212
     27          6           0        3.498983    0.117259    2.032990
     28          6           0        2.131723   -0.182462    1.977209
     29          7           0        1.325664    0.487645    1.143077
     30          6           0       -2.880605    2.019969   -0.610393
     31          1           0       -2.075207    4.275871   -1.901568
     32          1           0        0.278964    5.090782   -2.166796
     33          1           0        2.123397    3.805062   -1.090897
     34          1           0        3.539767    2.620991   -0.246727
     35          1           0        5.084504    1.347853    1.237592
     36          1           0        4.139887   -0.439316    2.718728
     37          6           0        1.538455   -1.243996    2.840080
     38          1           0       -2.976069    1.542219    0.377073
     39          1           0       -3.135418    1.257681   -1.361965
     40          1           0       -3.596833    2.847581   -0.697515
     41          1           0        1.437159   -2.181022    2.271773
     42          1           0        0.527381   -0.953267    3.163553
     43          1           0        2.176065   -1.441619    3.711776
 ---------------------------------------------------------------------
 Rotational constants (GHZ):           0.1829132           0.1418279           0.1331137
 Leave Link  202 at Tue Nov 14 12:30:00 2023, MaxMem=  4718592000 cpu:               0.2 elap:               0.0
 (Enter /ssoft/spack/external/gaussian/g16-C.01/avx2/g16/l301.exe)
 Standard basis: def2TZVP (5D, 7F)
 Ernie: Thresh=  0.10000D-02 Tol=  0.10000D-05 Strict=F.
 There are  1036 symmetry adapted cartesian basis functions of A   symmetry.
 There are   908 symmetry adapted basis functions of A   symmetry.
   908 basis functions,  1548 primitive gaussians,  1036 cartesian basis functions
   118 alpha electrons      117 beta electrons
       nuclear repulsion energy      3693.2327117016 Hartrees.
 IExCor= 4235 DFT=T Ex+Corr=M06 ExCW=0 ScaHFX=  0.270000
 ScaDFX=  1.000000  1.000000  1.000000  1.000000 ScalE2=  1.000000  1.000000
 IRadAn=      5 IRanWt=     -1 IRanGd=            0 ICorTp=0 IEmpDi=  4
 NAtoms=   43 NActive=   43 NUniq=   43 SFac= 1.00D+00 NAtFMM=   60 NAOKFM=F Big=F
 Integral buffers will be    131072 words long.
 Raffenetti 2 integral format.
 Two-electron integral symmetry is turned on.
 ------------------------------------------------------------------------------
 Polarizable Continuum Model (PCM)
 =================================
 Model                : PCM.
 Atomic radii         : SMD-Coulomb.
 Polarization charges : Total charges.
 Charge compensation  : None.
 Solution method      : On-the-fly selection.
 Cavity type          : VdW (van der Waals Surface) (Alpha=1.000).
 Cavity algorithm     : GePol (No added spheres)
                        Default sphere list used, NSphG=   43.
                        Lebedev-Laikov grids with approx.  5.0 points / Ang**2.
                        Smoothing algorithm: York/Karplus (Gamma=1.0000).
                        Polarization charges: spherical gaussians, with
                                              point-specific exponents (IZeta= 3).
                        Self-potential: point-specific (ISelfS= 7).
                        Self-field    : sphere-specific E.n sum rule (ISelfD= 2).
 Solvent              : 1,4-Dioxane, Eps=   2.209900 Eps(inf)=   2.023222
 ------------------------------------------------------------------------------
 GePol: Number of generator spheres                  =      43
 GePol: Total number of spheres                      =      43
 GePol: Number of exposed spheres                    =      43 (100.00%)
 GePol: Number of points                             =    3332
 GePol: Average weight of points                     =       0.12
 GePol: Minimum weight of points                     =   0.42D-11
 GePol: Maximum weight of points                     =    0.22025
 GePol: Number of points with low weight             =     174
 GePol: Fraction of low-weight points (<1% of avg)   =       5.22%
 GePol: Cavity surface area                          =    394.596 Ang**2
 GePol: Cavity volume                                =    431.263 Ang**3
 ------------------------------------------------------------------------------
 Atomic radii for non-electrostatic terms: SMD-CDS.
 ------------------------------------------------------------------------------
 PCM non-electrostatic energy =        -0.0050814791 Hartrees.
 Nuclear repulsion after PCM non-electrostatic terms =     3693.2276302225 Hartrees.
 Leave Link  301 at Tue Nov 14 12:30:01 2023, MaxMem=  4718592000 cpu:               3.7 elap:               0.1
 (Enter /ssoft/spack/external/gaussian/g16-C.01/avx2/g16/l302.exe)
 NPDir=0 NMtPBC=     1 NCelOv=     1 NCel=       1 NClECP=     1 NCelD=      1
         NCelK=      1 NCelE2=     1 NClLst=     1 CellRange=     0.0.
 One-electron integrals computed using PRISM.
 One-electron integral symmetry used in STVInt
   1 Symmetry operations used in ECPInt.
 ECPInt:  NShTT=   62835 NPrTT=  205799 LenC2=   56542 LenP2D=  127953.
 LDataN:  DoStor=T MaxTD1= 7 Len=  274
 NBasis=   908 RedAO= T EigKep=  5.58D-06  NBF=   908
 NBsUse=   908 1.00D-06 EigRej= -1.00D+00 NBFU=   908
 Precomputing XC quadrature grid using
 IXCGrd= 4 IRadAn=           5 IRanWt=          -1 IRanGd=           0 AccXCQ= 0.00D+00.
 Defaulting to unpruned grid for atomic number  53.
 Generated NRdTot=       0 NPtTot=           0 NUsed=           0 NTot=          32
 NSgBfM=  1019  1018  1018  1019  1019 MxSgAt=    43 MxSgA2=    43.
 Leave Link  302 at Tue Nov 14 12:30:02 2023, MaxMem=  4718592000 cpu:              48.5 elap:               1.4
 (Enter /ssoft/spack/external/gaussian/g16-C.01/avx2/g16/l303.exe)
 DipDrv:  MaxL=1.
 Leave Link  303 at Tue Nov 14 12:30:02 2023, MaxMem=  4718592000 cpu:               4.0 elap:               0.1
 (Enter /ssoft/spack/external/gaussian/g16-C.01/avx2/g16/l401.exe)
 ExpMin= 4.68D-02 ExpMax= 5.65D+05 ExpMxC= 5.46D+03 IAcc=3 IRadAn=         5 AccDes= 0.00D+00
 Harris functional with IExCor= 1009 and IRadAn=       5 diagonalized for initial guess.
 HarFok:  IExCor= 1009 AccDes= 0.00D+00 IRadAn=         5 IDoV= 1 UseB2=F ITyADJ=14
 ICtDFT=  3500011 ScaDFX=  1.000000  1.000000  1.000000  1.000000
 Defaulting to unpruned grid for atomic number  53.
 FoFCou: FMM=F IPFlag=           0 FMFlag=      100000 FMFlg1=           0
         NFxFlg=           0 DoJE=T BraDBF=F KetDBF=T FulRan=T
         wScrn=  0.000000 ICntrl=       500 IOpCl=  0 I1Cent=   200000004 NGrid=           0
         NMat0=    1 NMatS0=      1 NMatT0=    0 NMatD0=    1 NMtDS0=    0 NMtDT0=    0
 Petite list used in FoFCou.
 Harris En= -5224.46696468415    
 JPrj=0 DoOrth=F DoCkMO=F.
 Initial guess <Sx>= 0.0000 <Sy>= 0.0000 <Sz>= 0.5000 <S**2>= 0.7500 S= 0.5000
 Leave Link  401 at Tue Nov 14 12:30:05 2023, MaxMem=  4718592000 cpu:              96.4 elap:               2.7
 (Enter /ssoft/spack/external/gaussian/g16-C.01/avx2/g16/l502.exe)
 Integral symmetry usage will be decided dynamically.
 UHF open shell SCF:
 Using DIIS extrapolation, IDIIS=  1040.
 NGot=  4718592000 LenX=  4716398060 LenY=  4715323728
 Requested convergence on RMS density matrix=1.00D-08 within 128 cycles.
 Requested convergence on MAX density matrix=1.00D-06.
 Requested convergence on             energy=1.00D-06.
 No special actions if energy rises.
 Fock matrices will be formed incrementally for  20 cycles.

 Cycle   1  Pass 1  IDiag  1:
 FoFJK:  IHMeth= 1 ICntrl=       0 DoSepK=F KAlg= 0 I1Cent=           0 FoldK=F
 IRaf= 840000000 NMat=       1 IRICut=       1 DoRegI=T DoRafI=F ISym2E= 0 IDoP0=0 IntGTp=1.
 FoFCou: FMM=F IPFlag=           0 FMFlag=      100000 FMFlg1=           0
         NFxFlg=           0 DoJE=F BraDBF=F KetDBF=F FulRan=T
         wScrn=  0.000000 ICntrl=         0 IOpCl=  1 I1Cent=           0 NGrid=           0
         NMat0=    1 NMatS0=      1 NMatT0=    0 NMatD0=    1 NMtDS0=    0 NMtDT0=    0
 Symmetry not used in FoFCou.
 Defaulting to unpruned grid for atomic number  53.
 Defaulting to unpruned grid for atomic number  53.
 Defaulting to unpruned grid for atomic number  53.
 Defaulting to unpruned grid for atomic number  53.
 Defaulting to unpruned grid for atomic number  53.
 Defaulting to unpruned grid for atomic number  53.
 Defaulting to unpruned grid for atomic number  53.
 Defaulting to unpruned grid for atomic number  53.
 Defaulting to unpruned grid for atomic number  53.
 Defaulting to unpruned grid for atomic number  53.
 Defaulting to unpruned grid for atomic number  53.
 Defaulting to unpruned grid for atomic number  53.
 Defaulting to unpruned grid for atomic number  53.
 Defaulting to unpruned grid for atomic number  53.
 Defaulting to unpruned grid for atomic number  53.
 Defaulting to unpruned grid for atomic number  53.
 Defaulting to unpruned grid for atomic number  53.
 Defaulting to unpruned grid for atomic number  53.
 Defaulting to unpruned grid for atomic number  53.
 Defaulting to unpruned grid for atomic number  53.
 Defaulting to unpruned grid for atomic number  53.
 Defaulting to unpruned grid for atomic number  53.
 Defaulting to unpruned grid for atomic number  53.
 Defaulting to unpruned grid for atomic number  53.
 Defaulting to unpruned grid for atomic number  53.
 Defaulting to unpruned grid for atomic number  53.
 Defaulting to unpruned grid for atomic number  53.
 Defaulting to unpruned grid for atomic number  53.
 Defaulting to unpruned grid for atomic number  53.
 Defaulting to unpruned grid for atomic number  53.
 Defaulting to unpruned grid for atomic number  53.
 Defaulting to unpruned grid for atomic number  53.
 Defaulting to unpruned grid for atomic number  53.
 Defaulting to unpruned grid for atomic number  53.
 Defaulting to unpruned grid for atomic number  53.
 Defaulting to unpruned grid for atomic number  53.
 Inv3:  Mode=1 IEnd=    33306672.
 Iteration    1 A*A^-1 deviation from unit magnitude is 5.77D-15 for   2661.
 Iteration    1 A*A^-1 deviation from orthogonality  is 2.78D-15 for   2123    932.
 Iteration    1 A^-1*A deviation from unit magnitude is 7.99D-15 for   2661.
 Iteration    1 A^-1*A deviation from orthogonality  is 4.44D-15 for   2770   2661.
 E= -5223.63444689989    
 DIIS: error= 2.83D-02 at cycle   1 NSaved=   1.
 NSaved= 1 IEnMin= 1 EnMin= -5223.63444689989     IErMin= 1 ErrMin= 2.83D-02
 ErrMax= 2.83D-02  0.00D+00 EMaxC= 1.00D-01 BMatC= 9.89D+00 BMatP= 9.89D+00
 IDIUse=3 WtCom= 7.17D-01 WtEn= 2.83D-01
 Coeff-Com:  0.100D+01
 Coeff-En:   0.100D+01
 Coeff:      0.100D+01
 Gap=     0.563 Goal=   None    Shift=    0.000
 Gap=     0.025 Goal=   None    Shift=    0.000
 GapD=    0.025 DampG=0.250 DampE=0.250 DampFc=0.1250 IDamp=-1.
 Damping current iteration by 1.25D-01
 RMSDP=4.65D-03 MaxDP=1.03D+00              OVMax= 6.10D-01

 Cycle   2  Pass 1  IDiag  1:
 RMSU=  5.79D-04    CP:  1.01D+00
 E= -5224.02268917694     Delta-E=       -0.388242277045 Rises=F Damp=T
 DIIS: error= 2.02D-02 at cycle   2 NSaved=   2.
 NSaved= 2 IEnMin= 2 EnMin= -5224.02268917694     IErMin= 2 ErrMin= 2.02D-02
 ErrMax= 2.02D-02  0.00D+00 EMaxC= 1.00D-01 BMatC= 3.53D+00 BMatP= 9.89D+00
 IDIUse=3 WtCom= 7.98D-01 WtEn= 2.02D-01
 Coeff-Com: -0.112D+01 0.212D+01
 Coeff-En:   0.000D+00 0.100D+01
 Coeff:     -0.890D+00 0.189D+01
 Gap=     0.153 Goal=   None    Shift=    0.000
 Gap=    -0.008 Goal=   None    Shift=    0.000
 RMSDP=2.41D-03 MaxDP=1.44D-01 DE=-3.88D-01 OVMax= 8.74D-01

 Cycle   3  Pass 1  IDiag  1:
 RMSU=  2.25D-03    CP:  9.87D-01  2.48D+00
 E= -5224.57947849592     Delta-E=       -0.556789318980 Rises=F Damp=F
 DIIS: error= 1.04D-02 at cycle   3 NSaved=   3.
 NSaved= 3 IEnMin= 3 EnMin= -5224.57947849592     IErMin= 3 ErrMin= 1.04D-02
 ErrMax= 1.04D-02  0.00D+00 EMaxC= 1.00D-01 BMatC= 1.96D+00 BMatP= 3.53D+00
 IDIUse=3 WtCom= 8.96D-01 WtEn= 1.04D-01
 EnCoef did   100 forward-backward iterations
 Coeff-Com:  0.142D+00 0.222D+00 0.636D+00
 Coeff-En:   0.222D+00 0.417D-02 0.774D+00
 Coeff:      0.150D+00 0.199D+00 0.651D+00
 Gap=     0.118 Goal=   None    Shift=    0.000
 Gap=     0.113 Goal=   None    Shift=    0.000
 RMSDP=1.02D-03 MaxDP=8.70D-02 DE=-5.57D-01 OVMax= 1.73D-01

 Cycle   4  Pass 1  IDiag  1:
 RMSU=  8.45D-04    CP:  9.84D-01  1.69D+00  8.46D-01
 E= -5224.80561441204     Delta-E=       -0.226135916127 Rises=F Damp=F
 DIIS: error= 5.65D-03 at cycle   4 NSaved=   4.
 NSaved= 4 IEnMin= 4 EnMin= -5224.80561441204     IErMin= 4 ErrMin= 5.65D-03
 ErrMax= 5.65D-03  0.00D+00 EMaxC= 1.00D-01 BMatC= 3.84D-01 BMatP= 1.96D+00
 IDIUse=3 WtCom= 9.44D-01 WtEn= 5.65D-02
 Coeff-Com:  0.444D-02 0.140D+00 0.353D+00 0.502D+00
 Coeff-En:   0.000D+00 0.000D+00 0.176D+00 0.824D+00
 Coeff:      0.419D-02 0.132D+00 0.343D+00 0.521D+00
 Gap=     0.106 Goal=   None    Shift=    0.000
 Gap=     0.097 Goal=   None    Shift=    0.000
 RMSDP=5.48D-04 MaxDP=9.45D-02 DE=-2.26D-01 OVMax= 7.00D-02

 Cycle   5  Pass 1  IDiag  1:
 RMSU=  4.40D-04    CP:  9.78D-01  1.51D+00  8.82D-01  6.53D-01
 E= -5224.84723329214     Delta-E=       -0.041618880098 Rises=F Damp=F
 DIIS: error= 4.25D-03 at cycle   5 NSaved=   5.
 NSaved= 5 IEnMin= 5 EnMin= -5224.84723329214     IErMin= 5 ErrMin= 4.25D-03
 ErrMax= 4.25D-03  0.00D+00 EMaxC= 1.00D-01 BMatC= 7.69D-02 BMatP= 3.84D-01
 IDIUse=3 WtCom= 9.58D-01 WtEn= 4.25D-02
 Coeff-Com: -0.891D-01 0.123D+00 0.796D-01 0.351D+00 0.536D+00
 Coeff-En:   0.000D+00 0.000D+00 0.000D+00 0.254D+00 0.746D+00
 Coeff:     -0.853D-01 0.117D+00 0.763D-01 0.347D+00 0.545D+00
 Gap=     0.118 Goal=   None    Shift=    0.000
 Gap=     0.105 Goal=   None    Shift=    0.000
 RMSDP=2.56D-04 MaxDP=2.65D-02 DE=-4.16D-02 OVMax= 5.44D-02

 Cycle   6  Pass 1  IDiag  1:
 RMSU=  1.82D-04    CP:  9.81D-01  1.66D+00  8.77D-01  7.48D-01  6.96D-01
 E= -5224.86519917706     Delta-E=       -0.017965884921 Rises=F Damp=F
 DIIS: error= 9.45D-04 at cycle   6 NSaved=   6.
 NSaved= 6 IEnMin= 6 EnMin= -5224.86519917706     IErMin= 6 ErrMin= 9.45D-04
 ErrMax= 9.45D-04  0.00D+00 EMaxC= 1.00D-01 BMatC= 1.29D-02 BMatP= 7.69D-02
 IDIUse=3 WtCom= 9.91D-01 WtEn= 9.45D-03
 Coeff-Com: -0.162D-01 0.144D-01 0.184D-01 0.170D+00 0.329D+00 0.485D+00
 Coeff-En:   0.000D+00 0.000D+00 0.000D+00 0.000D+00 0.364D-01 0.964D+00
 Coeff:     -0.160D-01 0.142D-01 0.182D-01 0.168D+00 0.326D+00 0.489D+00
 Gap=     0.116 Goal=   None    Shift=    0.000
 Gap=     0.101 Goal=   None    Shift=    0.000
 RMSDP=9.49D-05 MaxDP=6.85D-03 DE=-1.80D-02 OVMax= 2.45D-02

 Cycle   7  Pass 1  IDiag  1:
 RMSU=  8.20D-05    CP:  9.81D-01  1.66D+00  8.81D-01  7.59D-01  7.74D-01
                    CP:  8.37D-01
 E= -5224.86739642465     Delta-E=       -0.002197247590 Rises=F Damp=F
 DIIS: error= 4.29D-04 at cycle   7 NSaved=   7.
 NSaved= 7 IEnMin= 7 EnMin= -5224.86739642465     IErMin= 7 ErrMin= 4.29D-04
 ErrMax= 4.29D-04  0.00D+00 EMaxC= 1.00D-01 BMatC= 1.07D-03 BMatP= 1.29D-02
 IDIUse=3 WtCom= 9.96D-01 WtEn= 4.29D-03
 Coeff-Com: -0.252D-02-0.152D-02-0.136D-01 0.111D-01 0.691D-01 0.272D+00
 Coeff-Com:  0.665D+00
 Coeff-En:   0.000D+00 0.000D+00 0.000D+00 0.000D+00 0.000D+00 0.000D+00
 Coeff-En:   0.100D+01
 Coeff:     -0.251D-02-0.151D-02-0.136D-01 0.111D-01 0.688D-01 0.271D+00
 Coeff:      0.666D+00
 Gap=     0.117 Goal=   None    Shift=    0.000
 Gap=     0.101 Goal=   None    Shift=    0.000
 RMSDP=5.75D-05 MaxDP=4.54D-03 DE=-2.20D-03 OVMax= 1.59D-02

 Cycle   8  Pass 1  IDiag  1:
 RMSU=  4.76D-05    CP:  9.81D-01  1.66D+00  8.81D-01  7.73D-01  7.85D-01
                    CP:  9.96D-01  9.30D-01
 E= -5224.86787377088     Delta-E=       -0.000477346230 Rises=F Damp=F
 DIIS: error= 1.46D-04 at cycle   8 NSaved=   8.
 NSaved= 8 IEnMin= 8 EnMin= -5224.86787377088     IErMin= 8 ErrMin= 1.46D-04
 ErrMax= 1.46D-04  0.00D+00 EMaxC= 1.00D-01 BMatC= 1.67D-04 BMatP= 1.07D-03
 IDIUse=3 WtCom= 9.99D-01 WtEn= 1.46D-03
 Coeff-Com:  0.411D-02-0.553D-02-0.813D-02-0.285D-01-0.336D-01 0.118D-01
 Coeff-Com:  0.264D+00 0.796D+00
 Coeff-En:   0.000D+00 0.000D+00 0.000D+00 0.000D+00 0.000D+00 0.000D+00
 Coeff-En:   0.000D+00 0.100D+01
 Coeff:      0.411D-02-0.552D-02-0.811D-02-0.284D-01-0.335D-01 0.117D-01
 Coeff:      0.264D+00 0.796D+00
 Gap=     0.118 Goal=   None    Shift=    0.000
 Gap=     0.100 Goal=   None    Shift=    0.000
 RMSDP=3.86D-05 MaxDP=4.10D-03 DE=-4.77D-04 OVMax= 1.59D-02

 Cycle   9  Pass 1  IDiag  1:
 RMSU=  2.18D-05    CP:  9.80D-01  1.66D+00  8.79D-01  7.71D-01  8.10D-01
                    CP:  1.07D+00  1.17D+00  1.35D+00
 E= -5224.86808340056     Delta-E=       -0.000209629674 Rises=F Damp=F
 DIIS: error= 1.35D-04 at cycle   9 NSaved=   9.
 NSaved= 9 IEnMin= 9 EnMin= -5224.86808340056     IErMin= 9 ErrMin= 1.35D-04
 ErrMax= 1.35D-04  0.00D+00 EMaxC= 1.00D-01 BMatC= 1.04D-04 BMatP= 1.67D-04
 IDIUse=3 WtCom= 9.99D-01 WtEn= 1.35D-03
 Coeff-Com:  0.265D-03 0.731D-03-0.134D-02-0.184D-01-0.322D-01-0.504D-01
 Coeff-Com: -0.473D-02 0.451D+00 0.655D+00
 Coeff-En:   0.000D+00 0.000D+00 0.000D+00 0.000D+00 0.000D+00 0.000D+00
 Coeff-En:   0.000D+00 0.000D+00 0.100D+01
 Coeff:      0.264D-03 0.730D-03-0.134D-02-0.184D-01-0.321D-01-0.503D-01
 Coeff:     -0.473D-02 0.450D+00 0.656D+00
 Gap=     0.119 Goal=   None    Shift=    0.000
 Gap=     0.099 Goal=   None    Shift=    0.000
 RMSDP=2.71D-05 MaxDP=2.86D-03 DE=-2.10D-04 OVMax= 1.29D-02

 Cycle  10  Pass 1  IDiag  1:
 RMSU=  1.09D-05    CP:  9.80D-01  1.66D+00  8.79D-01  7.71D-01  8.21D-01
                    CP:  1.11D+00  1.29D+00  1.72D+00  1.50D+00
 E= -5224.86820941330     Delta-E=       -0.000126012745 Rises=F Damp=F
 DIIS: error= 1.26D-04 at cycle  10 NSaved=  10.
 NSaved=10 IEnMin=10 EnMin= -5224.86820941330     IErMin=10 ErrMin= 1.26D-04
 ErrMax= 1.26D-04  0.00D+00 EMaxC= 1.00D-01 BMatC= 5.82D-05 BMatP= 1.04D-04
 IDIUse=3 WtCom= 9.99D-01 WtEn= 1.26D-03
 Coeff-Com: -0.534D-02 0.742D-02 0.407D-02 0.775D-02 0.783D-02-0.990D-02
 Coeff-Com: -0.137D+00-0.237D+00 0.231D+00 0.113D+01
 Coeff-En:   0.000D+00 0.000D+00 0.000D+00 0.000D+00 0.000D+00 0.000D+00
 Coeff-En:   0.000D+00 0.000D+00 0.000D+00 0.100D+01
 Coeff:     -0.534D-02 0.742D-02 0.406D-02 0.774D-02 0.782D-02-0.989D-02
 Coeff:     -0.137D+00-0.236D+00 0.231D+00 0.113D+01
 Gap=     0.120 Goal=   None    Shift=    0.000
 Gap=     0.098 Goal=   None    Shift=    0.000
 RMSDP=3.76D-05 MaxDP=4.12D-03 DE=-1.26D-04 OVMax= 1.88D-02

 Cycle  11  Pass 1  IDiag  1:
 RMSU=  1.05D-05    CP:  9.80D-01  1.67D+00  8.77D-01  7.72D-01  8.34D-01
                    CP:  1.16D+00  1.44D+00  2.17D+00  2.45D+00  2.11D+00
 E= -5224.86834723358     Delta-E=       -0.000137820276 Rises=F Damp=F
 DIIS: error= 7.60D-05 at cycle  11 NSaved=  11.
 NSaved=11 IEnMin=11 EnMin= -5224.86834723358     IErMin=11 ErrMin= 7.60D-05
 ErrMax= 7.60D-05  0.00D+00 EMaxC= 1.00D-01 BMatC= 2.33D-05 BMatP= 5.82D-05
 IDIUse=1 WtCom= 1.00D+00 WtEn= 0.00D+00
 Coeff-Com: -0.203D-02 0.246D-02 0.407D-02 0.134D-01 0.197D-01 0.266D-01
 Coeff-Com: -0.101D+00-0.420D+00-0.248D+00 0.630D+00 0.107D+01
 Coeff:     -0.203D-02 0.246D-02 0.407D-02 0.134D-01 0.197D-01 0.266D-01
 Coeff:     -0.101D+00-0.420D+00-0.248D+00 0.630D+00 0.107D+01
 Gap=     0.121 Goal=   None    Shift=    0.000
 Gap=     0.098 Goal=   None    Shift=    0.000
 RMSDP=4.31D-05 MaxDP=5.00D-03 DE=-1.38D-04 OVMax= 2.32D-02

 Cycle  12  Pass 1  IDiag  1:
 RMSU=  1.55D-05    CP:  9.81D-01  1.67D+00  8.75D-01  7.73D-01  8.46D-01
                    CP:  1.20D+00  1.61D+00  2.65D+00  3.00D+00  3.00D+00
                    CP:  1.93D+00
 E= -5224.86844567301     Delta-E=       -0.000098439428 Rises=F Damp=F
 DIIS: error= 7.09D-05 at cycle  12 NSaved=  12.
 NSaved=12 IEnMin=12 EnMin= -5224.86844567301     IErMin=12 ErrMin= 7.09D-05
 ErrMax= 7.09D-05  0.00D+00 EMaxC= 1.00D-01 BMatC= 2.86D-05 BMatP= 2.33D-05
 IDIUse=1 WtCom= 1.00D+00 WtEn= 0.00D+00
 Coeff-Com:  0.382D-03-0.676D-03 0.382D-03 0.160D-02 0.669D-02 0.297D-01
 Coeff-Com:  0.186D-01-0.763D-01-0.267D+00-0.403D+00 0.780D+00 0.909D+00
 Coeff:      0.382D-03-0.676D-03 0.382D-03 0.160D-02 0.669D-02 0.297D-01
 Coeff:      0.186D-01-0.763D-01-0.267D+00-0.403D+00 0.780D+00 0.909D+00
 Gap=     0.122 Goal=   None    Shift=    0.000
 Gap=     0.097 Goal=   None    Shift=    0.000
 RMSDP=2.98D-05 MaxDP=3.42D-03 DE=-9.84D-05 OVMax= 1.62D-02

 Cycle  13  Pass 1  IDiag  1:
 RMSU=  7.25D-06    CP:  9.81D-01  1.68D+00  8.73D-01  7.73D-01  8.56D-01
                    CP:  1.22D+00  1.69D+00  2.96D+00  3.00D+00  3.00D+00
                    CP:  3.00D+00  2.29D+00
 E= -5224.86848285510     Delta-E=       -0.000037182099 Rises=F Damp=F
 DIIS: error= 3.25D-05 at cycle  13 NSaved=  13.
 NSaved=13 IEnMin=13 EnMin= -5224.86848285510     IErMin=13 ErrMin= 3.25D-05
 ErrMax= 3.25D-05  0.00D+00 EMaxC= 1.00D-01 BMatC= 5.44D-06 BMatP= 2.33D-05
 IDIUse=1 WtCom= 1.00D+00 WtEn= 0.00D+00
 Coeff-Com: -0.413D-04 0.371D-04-0.105D-02-0.345D-02-0.182D-02 0.995D-02
 Coeff-Com:  0.432D-01 0.978D-01-0.403D-01-0.409D+00 0.734D-01 0.392D+00
 Coeff-Com:  0.839D+00
 Coeff:     -0.413D-04 0.371D-04-0.105D-02-0.345D-02-0.182D-02 0.995D-02
 Coeff:      0.432D-01 0.978D-01-0.403D-01-0.409D+00 0.734D-01 0.392D+00
 Coeff:      0.839D+00
 Gap=     0.122 Goal=   None    Shift=    0.000
 Gap=     0.097 Goal=   None    Shift=    0.000
 RMSDP=1.08D-05 MaxDP=1.19D-03 DE=-3.72D-05 OVMax= 5.58D-03

 Cycle  14  Pass 1  IDiag  1:
 RMSU=  7.10D-06    CP:  9.81D-01  1.68D+00  8.73D-01  7.73D-01  8.58D-01
                    CP:  1.23D+00  1.70D+00  3.00D+00  3.00D+00  3.00D+00
                    CP:  3.00D+00  2.74D+00  1.39D+00
 E= -5224.86848978590     Delta-E=       -0.000006930795 Rises=F Damp=F
 DIIS: error= 1.87D-05 at cycle  14 NSaved=  14.
 NSaved=14 IEnMin=14 EnMin= -5224.86848978590     IErMin=14 ErrMin= 1.87D-05
 ErrMax= 1.87D-05  0.00D+00 EMaxC= 1.00D-01 BMatC= 2.17D-06 BMatP= 5.44D-06
 IDIUse=1 WtCom= 1.00D+00 WtEn= 0.00D+00
 Coeff-Com:  0.277D-03-0.336D-03-0.477D-03-0.122D-02-0.240D-02-0.820D-02
 Coeff-Com:  0.111D-01 0.488D-01 0.823D-01 0.108D-01-0.251D+00-0.158D+00
 Coeff-Com:  0.309D+00 0.959D+00
 Coeff:      0.277D-03-0.336D-03-0.477D-03-0.122D-02-0.240D-02-0.820D-02
 Coeff:      0.111D-01 0.488D-01 0.823D-01 0.108D-01-0.251D+00-0.158D+00
 Coeff:      0.309D+00 0.959D+00
 Gap=     0.122 Goal=   None    Shift=    0.000
 Gap=     0.097 Goal=   None    Shift=    0.000
 RMSDP=7.41D-06 MaxDP=7.86D-04 DE=-6.93D-06 OVMax= 3.28D-03

 Cycle  15  Pass 1  IDiag  1:
 RMSU=  3.32D-06    CP:  9.81D-01  1.68D+00  8.73D-01  7.74D-01  8.59D-01
                    CP:  1.23D+00  1.69D+00  3.00D+00  3.00D+00  3.00D+00
                    CP:  3.00D+00  2.94D+00  1.67D+00  1.77D+00
 E= -5224.86849287523     Delta-E=       -0.000003089333 Rises=F Damp=F
 DIIS: error= 1.23D-05 at cycle  15 NSaved=  15.
 NSaved=15 IEnMin=15 EnMin= -5224.86849287523     IErMin=15 ErrMin= 1.23D-05
 ErrMax= 1.23D-05  0.00D+00 EMaxC= 1.00D-01 BMatC= 8.68D-07 BMatP= 2.17D-06
 IDIUse=1 WtCom= 1.00D+00 WtEn= 0.00D+00
 Coeff-Com:  0.216D-03-0.260D-03-0.465D-04 0.273D-03-0.112D-02-0.892D-02
 Coeff-Com: -0.550D-02 0.958D-03 0.616D-01 0.137D+00-0.191D+00-0.210D+00
 Coeff-Com: -0.520D-01 0.572D+00 0.696D+00
 Coeff:      0.216D-03-0.260D-03-0.465D-04 0.273D-03-0.112D-02-0.892D-02
 Coeff:     -0.550D-02 0.958D-03 0.616D-01 0.137D+00-0.191D+00-0.210D+00
 Coeff:     -0.520D-01 0.572D+00 0.696D+00
 Gap=     0.122 Goal=   None    Shift=    0.000
 Gap=     0.097 Goal=   None    Shift=    0.000
 RMSDP=4.80D-06 MaxDP=6.30D-04 DE=-3.09D-06 OVMax= 2.06D-03

 Cycle  16  Pass 1  IDiag  1:
 RMSU=  1.29D-06    CP:  9.81D-01  1.68D+00  8.73D-01  7.74D-01  8.59D-01
                    CP:  1.22D+00  1.69D+00  3.00D+00  3.00D+00  3.00D+00
                    CP:  3.00D+00  3.00D+00  1.81D+00  2.25D+00  1.78D+00
 E= -5224.86849438514     Delta-E=       -0.000001509909 Rises=F Damp=F
 DIIS: error= 9.96D-06 at cycle  16 NSaved=  16.
 NSaved=16 IEnMin=16 EnMin= -5224.86849438514     IErMin=16 ErrMin= 9.96D-06
 ErrMax= 9.96D-06  0.00D+00 EMaxC= 1.00D-01 BMatC= 3.44D-07 BMatP= 8.68D-07
 IDIUse=1 WtCom= 1.00D+00 WtEn= 0.00D+00
 Coeff-Com: -0.282D-04 0.440D-04 0.217D-03 0.725D-03 0.467D-03 0.134D-03
 Coeff-Com: -0.946D-02-0.242D-01-0.205D-01 0.758D-01 0.346D-01-0.245D-01
 Coeff-Com: -0.241D+00-0.382D+00 0.382D+00 0.121D+01
 Coeff:     -0.282D-04 0.440D-04 0.217D-03 0.725D-03 0.467D-03 0.134D-03
 Coeff:     -0.946D-02-0.242D-01-0.205D-01 0.758D-01 0.346D-01-0.245D-01
 Coeff:     -0.241D+00-0.382D+00 0.382D+00 0.121D+01
 Gap=     0.122 Goal=   None    Shift=    0.000
 Gap=     0.097 Goal=   None    Shift=    0.000
 RMSDP=7.78D-06 MaxDP=1.17D-03 DE=-1.51D-06 OVMax= 3.39D-03

 Cycle  17  Pass 1  IDiag  1:
 RMSU=  1.79D-06    CP:  9.81D-01  1.68D+00  8.73D-01  7.75D-01  8.57D-01
                    CP:  1.22D+00  1.69D+00  3.00D+00  3.00D+00  3.00D+00
                    CP:  3.00D+00  3.00D+00  2.02D+00  3.00D+00  3.00D+00
                    CP:  2.58D+00
 E= -5224.86849598016     Delta-E=       -0.000001595019 Rises=F Damp=F
 DIIS: error= 5.67D-06 at cycle  17 NSaved=  17.
 NSaved=17 IEnMin=17 EnMin= -5224.86849598016     IErMin=17 ErrMin= 5.67D-06
 ErrMax= 5.67D-06  0.00D+00 EMaxC= 1.00D-01 BMatC= 1.59D-07 BMatP= 3.44D-07
 IDIUse=1 WtCom= 1.00D+00 WtEn= 0.00D+00
 Coeff-Com:  0.643D-04-0.861D-04 0.113D-03 0.142D-03 0.529D-03 0.307D-02
 Coeff-Com: -0.547D-03-0.544D-02-0.281D-01-0.264D-01 0.785D-01 0.717D-01
 Coeff-Com: -0.420D-01-0.333D+00-0.209D+00 0.363D+00 0.113D+01
 Coeff:      0.643D-04-0.861D-04 0.113D-03 0.142D-03 0.529D-03 0.307D-02
 Coeff:     -0.547D-03-0.544D-02-0.281D-01-0.264D-01 0.785D-01 0.717D-01
 Coeff:     -0.420D-01-0.333D+00-0.209D+00 0.363D+00 0.113D+01
 Gap=     0.122 Goal=   None    Shift=    0.000
 Gap=     0.097 Goal=   None    Shift=    0.000
 RMSDP=5.09D-06 MaxDP=7.70D-04 DE=-1.60D-06 OVMax= 2.11D-03

 Cycle  18  Pass 1  IDiag  1:
 RMSU=  4.47D-06    CP:  9.81D-01  1.68D+00  8.73D-01  7.76D-01  8.56D-01
                    CP:  1.22D+00  1.69D+00  2.99D+00  3.00D+00  3.00D+00
                    CP:  3.00D+00  3.00D+00  2.15D+00  3.00D+00  3.00D+00
                    CP:  3.00D+00  1.89D+00
 E= -5224.86849656682     Delta-E=       -0.000000586659 Rises=F Damp=F
 DIIS: error= 3.34D-06 at cycle  18 NSaved=  18.
 NSaved=18 IEnMin=18 EnMin= -5224.86849656682     IErMin=18 ErrMin= 3.34D-06
 ErrMax= 3.34D-06  0.00D+00 EMaxC= 1.00D-01 BMatC= 6.31D-08 BMatP= 1.59D-07
 IDIUse=1 WtCom= 1.00D+00 WtEn= 0.00D+00
 Coeff-Com:  0.491D-04-0.659D-04-0.287D-04-0.184D-03 0.123D-03 0.157D-02
 Coeff-Com:  0.363D-02 0.708D-02-0.602D-02-0.392D-01 0.232D-01 0.380D-01
 Coeff-Com:  0.596D-01-0.347D-01-0.231D+00-0.213D+00 0.606D+00 0.785D+00
 Coeff:      0.491D-04-0.659D-04-0.287D-04-0.184D-03 0.123D-03 0.157D-02
 Coeff:      0.363D-02 0.708D-02-0.602D-02-0.392D-01 0.232D-01 0.380D-01
 Coeff:      0.596D-01-0.347D-01-0.231D+00-0.213D+00 0.606D+00 0.785D+00
 Gap=     0.122 Goal=   None    Shift=    0.000
 Gap=     0.097 Goal=   None    Shift=    0.000
 RMSDP=2.27D-06 MaxDP=3.19D-04 DE=-5.87D-07 OVMax= 9.98D-04

 Cycle  19  Pass 1  IDiag  1:
 RMSU=  5.30D-07    CP:  9.81D-01  1.68D+00  8.73D-01  7.76D-01  8.56D-01
                    CP:  1.22D+00  1.69D+00  2.98D+00  3.00D+00  3.00D+00
                    CP:  3.00D+00  3.00D+00  2.21D+00  3.00D+00  3.00D+00
                    CP:  3.00D+00  2.34D+00  1.44D+00
 E= -5224.86849674479     Delta-E=       -0.000000177972 Rises=F Damp=F
 DIIS: error= 3.18D-06 at cycle  19 NSaved=  19.
 NSaved=19 IEnMin=19 EnMin= -5224.86849674479     IErMin=19 ErrMin= 3.18D-06
 ErrMax= 3.18D-06  0.00D+00 EMaxC= 1.00D-01 BMatC= 2.85D-08 BMatP= 6.31D-08
 IDIUse=1 WtCom= 1.00D+00 WtEn= 0.00D+00
 Coeff-Com: -0.472D-06 0.119D-06-0.638D-04-0.109D-03-0.754D-04-0.295D-03
 Coeff-Com:  0.205D-02 0.463D-02 0.748D-02-0.864D-02-0.183D-01-0.982D-02
 Coeff-Com:  0.467D-01 0.112D+00-0.277D-01-0.243D+00-0.169D+00 0.353D+00
 Coeff-Com:  0.952D+00
 Coeff:     -0.472D-06 0.119D-06-0.638D-04-0.109D-03-0.754D-04-0.295D-03
 Coeff:      0.205D-02 0.463D-02 0.748D-02-0.864D-02-0.183D-01-0.982D-02
 Coeff:      0.467D-01 0.112D+00-0.277D-01-0.243D+00-0.169D+00 0.353D+00
 Coeff:      0.952D+00
 Gap=     0.122 Goal=   None    Shift=    0.000
 Gap=     0.097 Goal=   None    Shift=    0.000
 RMSDP=1.55D-06 MaxDP=2.28D-04 DE=-1.78D-07 OVMax= 7.08D-04

 Cycle  20  Pass 1  IDiag  1:
 RMSU=  3.47D-07    CP:  9.81D-01  1.68D+00  8.73D-01  7.76D-01  8.56D-01
                    CP:  1.22D+00  1.69D+00  2.98D+00  3.00D+00  3.00D+00
                    CP:  3.00D+00  3.00D+00  2.25D+00  3.00D+00  3.00D+00
                    CP:  3.00D+00  2.65D+00  1.72D+00  1.97D+00
 E= -5224.86849684012     Delta-E=       -0.000000095333 Rises=F Damp=F
 DIIS: error= 2.46D-06 at cycle  20 NSaved=  20.
 NSaved=20 IEnMin=20 EnMin= -5224.86849684012     IErMin=20 ErrMin= 2.46D-06
 ErrMax= 2.46D-06  0.00D+00 EMaxC= 1.00D-01 BMatC= 1.55D-08 BMatP= 2.85D-08
 IDIUse=1 WtCom= 1.00D+00 WtEn= 0.00D+00
 Coeff-Com: -0.245D-04 0.308D-04-0.952D-05 0.961D-04-0.641D-04-0.112D-02
 Coeff-Com: -0.159D-02-0.316D-02 0.702D-02 0.200D-01-0.212D-01-0.263D-01
 Coeff-Com: -0.122D-01 0.805D-01 0.134D+00 0.722D-02-0.516D+00-0.344D+00
 Coeff-Com:  0.547D+00 0.113D+01
 Coeff:     -0.245D-04 0.308D-04-0.952D-05 0.961D-04-0.641D-04-0.112D-02
 Coeff:     -0.159D-02-0.316D-02 0.702D-02 0.200D-01-0.212D-01-0.263D-01
 Coeff:     -0.122D-01 0.805D-01 0.134D+00 0.722D-02-0.516D+00-0.344D+00
 Coeff:      0.547D+00 0.113D+01
 Gap=     0.122 Goal=   None    Shift=    0.000
 Gap=     0.097 Goal=   None    Shift=    0.000
 RMSDP=1.59D-06 MaxDP=2.11D-04 DE=-9.53D-08 OVMax= 7.31D-04

 Cycle  21  Pass 1  IDiag  1:
 Restarting incremental Fock formation.
 E= -5224.86849690573     Delta-E=       -0.000000065604 Rises=F Damp=F
 DIIS: error= 1.41D-06 at cycle  21 NSaved=  20.
 NSaved=20 IEnMin=20 EnMin= -5224.86849690573     IErMin=20 ErrMin= 1.41D-06
 ErrMax= 1.41D-06  0.00D+00 EMaxC= 1.00D-01 BMatC= 1.24D-08 BMatP= 1.55D-08
 IDIUse=1 WtCom= 1.00D+00 WtEn= 0.00D+00
 Coeff-Com: -0.108D-06-0.494D-05-0.431D-04-0.181D-03-0.549D-03-0.939D-03
 Coeff-Com: -0.260D-03 0.216D-02 0.841D-02-0.647D-02-0.115D-01-0.217D-01
 Coeff-Com:  0.198D-01 0.774D-01 0.692D-01-0.196D+00-0.302D+00-0.770D-01
 Coeff-Com:  0.621D+00 0.818D+00
 Coeff:     -0.108D-06-0.494D-05-0.431D-04-0.181D-03-0.549D-03-0.939D-03
 Coeff:     -0.260D-03 0.216D-02 0.841D-02-0.647D-02-0.115D-01-0.217D-01
 Coeff:      0.198D-01 0.774D-01 0.692D-01-0.196D+00-0.302D+00-0.770D-01
 Coeff:      0.621D+00 0.818D+00
 Gap=     0.122 Goal=   None    Shift=    0.000
 Gap=     0.097 Goal=   None    Shift=    0.000
 RMSDP=6.86D-07 MaxDP=9.69D-05 DE=-6.56D-08 OVMax= 3.08D-04

 Cycle  22  Pass 1  IDiag  1:
 RMSU=  6.86D-07    CP:  1.00D+00
 E= -5224.86849692380     Delta-E=       -0.000000018070 Rises=F Damp=F
 DIIS: error= 5.95D-07 at cycle  22 NSaved=  20.
 NSaved=20 IEnMin=20 EnMin= -5224.86849692380     IErMin=20 ErrMin= 5.95D-07
 ErrMax= 5.95D-07  0.00D+00 EMaxC= 1.00D-01 BMatC= 3.66D-09 BMatP= 1.24D-08
 IDIUse=1 WtCom= 1.00D+00 WtEn= 0.00D+00
 Coeff-Com:  0.172D-04-0.182D-04-0.312D-04 0.154D-03-0.520D-03-0.578D-03
 Coeff-Com: -0.204D-02 0.867D-03 0.717D-02 0.179D-02-0.174D-01-0.207D-01
 Coeff-Com:  0.528D-02 0.489D-01 0.777D-01-0.819D-01-0.301D+00-0.244D-01
 Coeff-Com:  0.548D+00 0.759D+00
 Coeff:      0.172D-04-0.182D-04-0.312D-04 0.154D-03-0.520D-03-0.578D-03
 Coeff:     -0.204D-02 0.867D-03 0.717D-02 0.179D-02-0.174D-01-0.207D-01
 Coeff:      0.528D-02 0.489D-01 0.777D-01-0.819D-01-0.301D+00-0.244D-01
 Coeff:      0.548D+00 0.759D+00
 Gap=     0.122 Goal=   None    Shift=    0.000
 Gap=     0.097 Goal=   None    Shift=    0.000
 RMSDP=4.54D-07 MaxDP=6.50D-05 DE=-1.81D-08 OVMax= 1.82D-04

 Cycle  23  Pass 1  IDiag  1:
 RMSU=  1.26D-07    CP:  1.00D+00  1.64D+00
 E= -5224.86849693109     Delta-E=       -0.000000007287 Rises=F Damp=F
 DIIS: error= 4.34D-07 at cycle  23 NSaved=  20.
 NSaved=20 IEnMin=20 EnMin= -5224.86849693109     IErMin=20 ErrMin= 4.34D-07
 ErrMax= 4.34D-07  0.00D+00 EMaxC= 1.00D-01 BMatC= 1.31D-09 BMatP= 3.66D-09
 IDIUse=1 WtCom= 1.00D+00 WtEn= 0.00D+00
 Coeff-Com: -0.287D-04-0.270D-05 0.204D-03 0.288D-03 0.701D-03-0.926D-03
 Coeff-Com: -0.339D-02 0.382D-02 0.319D-02-0.340D-03-0.911D-02-0.197D-01
 Coeff-Com: -0.594D-02 0.914D-01 0.521D-01-0.114D+00-0.184D+00 0.146D-01
 Coeff-Com:  0.358D+00 0.813D+00
 Coeff:     -0.287D-04-0.270D-05 0.204D-03 0.288D-03 0.701D-03-0.926D-03
 Coeff:     -0.339D-02 0.382D-02 0.319D-02-0.340D-03-0.911D-02-0.197D-01
 Coeff:     -0.594D-02 0.914D-01 0.521D-01-0.114D+00-0.184D+00 0.146D-01
 Coeff:      0.358D+00 0.813D+00
 Gap=     0.122 Goal=   None    Shift=    0.000
 Gap=     0.097 Goal=   None    Shift=    0.000
 RMSDP=1.65D-07 MaxDP=2.16D-05 DE=-7.29D-09 OVMax= 5.77D-05

 Cycle  24  Pass 1  IDiag  1:
 RMSU=  7.48D-08    CP:  1.00D+00  1.84D+00  1.41D+00
 E= -5224.86849693348     Delta-E=       -0.000000002398 Rises=F Damp=F
 DIIS: error= 3.26D-07 at cycle  24 NSaved=  20.
 NSaved=20 IEnMin=20 EnMin= -5224.86849693348     IErMin=20 ErrMin= 3.26D-07
 ErrMax= 3.26D-07  0.00D+00 EMaxC= 1.00D-01 BMatC= 5.28D-10 BMatP= 1.31D-09
 IDIUse=1 WtCom= 1.00D+00 WtEn= 0.00D+00
 Coeff-Com:  0.131D-04 0.393D-04 0.195D-03 0.433D-03 0.115D-03-0.212D-02
 Coeff-Com:  0.255D-03 0.166D-02 0.577D-02-0.735D-03-0.146D-01-0.187D-01
 Coeff-Com:  0.279D-01 0.588D-01 0.405D-01-0.932D-01-0.195D+00-0.981D-01
 Coeff-Com:  0.424D+00 0.863D+00
 Coeff:      0.131D-04 0.393D-04 0.195D-03 0.433D-03 0.115D-03-0.212D-02
 Coeff:      0.255D-03 0.166D-02 0.577D-02-0.735D-03-0.146D-01-0.187D-01
 Coeff:      0.279D-01 0.588D-01 0.405D-01-0.932D-01-0.195D+00-0.981D-01
 Coeff:      0.424D+00 0.863D+00
 Gap=     0.122 Goal=   None    Shift=    0.000
 Gap=     0.097 Goal=   None    Shift=    0.000
 RMSDP=1.25D-07 MaxDP=1.54D-05 DE=-2.40D-09 OVMax= 5.06D-05

 Cycle  25  Pass 1  IDiag  1:
 RMSU=  4.36D-08    CP:  1.00D+00  1.97D+00  1.70D+00  1.87D+00
 E= -5224.86849693526     Delta-E=       -0.000000001774 Rises=F Damp=F
 DIIS: error= 2.58D-07 at cycle  25 NSaved=  20.
 NSaved=20 IEnMin=20 EnMin= -5224.86849693526     IErMin=20 ErrMin= 2.58D-07
 ErrMax= 2.58D-07  0.00D+00 EMaxC= 1.00D-01 BMatC= 2.93D-10 BMatP= 5.28D-10
 IDIUse=1 WtCom= 1.00D+00 WtEn= 0.00D+00
 Coeff-Com: -0.519D-04 0.327D-04 0.656D-04 0.310D-03-0.183D-03-0.124D-02
 Coeff-Com:  0.107D-03 0.358D-02 0.267D-02 0.124D-02-0.378D-02-0.294D-01
 Coeff-Com: -0.538D-02 0.596D-01 0.669D-01-0.410D-01-0.205D+00-0.404D+00
 Coeff-Com:  0.856D-01 0.147D+01
 Coeff:     -0.519D-04 0.327D-04 0.656D-04 0.310D-03-0.183D-03-0.124D-02
 Coeff:      0.107D-03 0.358D-02 0.267D-02 0.124D-02-0.378D-02-0.294D-01
 Coeff:     -0.538D-02 0.596D-01 0.669D-01-0.410D-01-0.205D+00-0.404D+00
 Coeff:      0.856D-01 0.147D+01
 Gap=     0.122 Goal=   None    Shift=    0.000
 Gap=     0.097 Goal=   None    Shift=    0.000
 RMSDP=1.35D-07 MaxDP=2.16D-05 DE=-1.77D-09 OVMax= 6.89D-05

 Cycle  26  Pass 1  IDiag  1:
 RMSU=  3.85D-08    CP:  1.00D+00  2.05D+00  1.94D+00  3.00D+00  2.56D+00
 E= -5224.86849693701     Delta-E=       -0.000000001747 Rises=F Damp=F
 DIIS: error= 1.67D-07 at cycle  26 NSaved=  20.
 NSaved=20 IEnMin=20 EnMin= -5224.86849693701     IErMin=20 ErrMin= 1.67D-07
 ErrMax= 1.67D-07  0.00D+00 EMaxC= 1.00D-01 BMatC= 1.93D-10 BMatP= 2.93D-10
 IDIUse=1 WtCom= 1.00D+00 WtEn= 0.00D+00
 Coeff-Com: -0.484D-04-0.375D-03-0.185D-03 0.114D-02-0.345D-03-0.640D-03
 Coeff-Com: -0.236D-02-0.322D-03 0.114D-01 0.144D-01-0.367D-01-0.452D-01
 Coeff-Com:  0.972D-02 0.105D+00 0.101D+00-0.596D-01-0.533D+00-0.541D+00
 Coeff-Com:  0.959D+00 0.102D+01
 Coeff:     -0.484D-04-0.375D-03-0.185D-03 0.114D-02-0.345D-03-0.640D-03
 Coeff:     -0.236D-02-0.322D-03 0.114D-01 0.144D-01-0.367D-01-0.452D-01
 Coeff:      0.972D-02 0.105D+00 0.101D+00-0.596D-01-0.533D+00-0.541D+00
 Coeff:      0.959D+00 0.102D+01
 Gap=     0.122 Goal=   None    Shift=    0.000
 Gap=     0.097 Goal=   None    Shift=    0.000
 RMSDP=1.18D-07 MaxDP=1.96D-05 DE=-1.75D-09 OVMax= 6.25D-05

 Cycle  27  Pass 1  IDiag  1:
 RMSU=  8.70D-08    CP:  1.00D+00  2.10D+00  2.06D+00  3.00D+00  3.00D+00
                    CP:  2.41D+00
 E= -5224.86849693800     Delta-E=       -0.000000000999 Rises=F Damp=F
 DIIS: error= 1.39D-07 at cycle  27 NSaved=  20.
 NSaved=20 IEnMin=20 EnMin= -5224.86849693800     IErMin=20 ErrMin= 1.39D-07
 ErrMax= 1.39D-07  0.00D+00 EMaxC= 1.00D-01 BMatC= 8.92D-11 BMatP= 1.93D-10
 IDIUse=1 WtCom= 1.00D+00 WtEn= 0.00D+00
 Coeff-Com:  0.359D-04 0.254D-03 0.353D-03-0.605D-03-0.864D-03-0.428D-03
 Coeff-Com:  0.290D-02 0.293D-02-0.561D-04-0.595D-02-0.123D-01-0.968D-02
 Coeff-Com:  0.234D-01 0.553D-01 0.427D-01-0.143D+00-0.362D+00-0.391D-01
 Coeff-Com:  0.601D+00 0.845D+00
 Coeff:      0.359D-04 0.254D-03 0.353D-03-0.605D-03-0.864D-03-0.428D-03
 Coeff:      0.290D-02 0.293D-02-0.561D-04-0.595D-02-0.123D-01-0.968D-02
 Coeff:      0.234D-01 0.553D-01 0.427D-01-0.143D+00-0.362D+00-0.391D-01
 Coeff:      0.601D+00 0.845D+00
 Gap=     0.122 Goal=   None    Shift=    0.000
 Gap=     0.097 Goal=   None    Shift=    0.000
 RMSDP=7.10D-08 MaxDP=1.28D-05 DE=-9.99D-10 OVMax= 4.08D-05

 Cycle  28  Pass 1  IDiag  1:
 RMSU=  3.17D-08    CP:  1.00D+00  2.13D+00  2.13D+00  3.00D+00  3.00D+00
                    CP:  3.00D+00  1.53D+00
 E= -5224.86849693835     Delta-E=       -0.000000000343 Rises=F Damp=F
 DIIS: error= 8.85D-08 at cycle  28 NSaved=  20.
 NSaved=20 IEnMin=20 EnMin= -5224.86849693835     IErMin=20 ErrMin= 8.85D-08
 ErrMax= 8.85D-08  0.00D+00 EMaxC= 1.00D-01 BMatC= 3.88D-11 BMatP= 8.92D-11
 IDIUse=1 WtCom= 1.00D+00 WtEn= 0.00D+00
 Coeff-Com:  0.290D-04 0.532D-04 0.348D-03-0.232D-03-0.647D-03-0.125D-03
 Coeff-Com: -0.253D-02-0.280D-02 0.157D-01 0.104D-01-0.176D-01-0.396D-01
 Coeff-Com: -0.161D-01 0.718D-01 0.246D+00 0.894D-01-0.665D+00-0.189D+00
 Coeff-Com:  0.492D+00 0.101D+01
 Coeff:      0.290D-04 0.532D-04 0.348D-03-0.232D-03-0.647D-03-0.125D-03
 Coeff:     -0.253D-02-0.280D-02 0.157D-01 0.104D-01-0.176D-01-0.396D-01
 Coeff:     -0.161D-01 0.718D-01 0.246D+00 0.894D-01-0.665D+00-0.189D+00
 Coeff:      0.492D+00 0.101D+01
 Gap=     0.122 Goal=   None    Shift=    0.000
 Gap=     0.097 Goal=   None    Shift=    0.000
 RMSDP=6.63D-08 MaxDP=8.97D-06 DE=-3.43D-10 OVMax= 3.10D-05

 Cycle  29  Pass 1  IDiag  1:
 RMSU=  2.41D-08    CP:  1.00D+00  2.17D+00  2.11D+00  3.00D+00  3.00D+00
                    CP:  3.00D+00  1.87D+00  2.43D+00
 E= -5224.86849693845     Delta-E=       -0.000000000106 Rises=F Damp=F
 DIIS: error= 4.06D-08 at cycle  29 NSaved=  20.
 NSaved=20 IEnMin=20 EnMin= -5224.86849693845     IErMin=20 ErrMin= 4.06D-08
 ErrMax= 4.06D-08  0.00D+00 EMaxC= 1.00D-01 BMatC= 1.24D-11 BMatP= 3.88D-11
 IDIUse=1 WtCom= 1.00D+00 WtEn= 0.00D+00
 Coeff-Com: -0.123D-03 0.272D-03 0.378D-04 0.104D-03 0.437D-03-0.274D-02
 Coeff-Com: -0.376D-02 0.958D-02 0.101D-01-0.433D-02-0.246D-01-0.241D-01
 Coeff-Com:  0.230D-01 0.140D+00 0.118D+00-0.300D+00-0.218D+00 0.602D-01
 Coeff-Com:  0.514D+00 0.702D+00
 Coeff:     -0.123D-03 0.272D-03 0.378D-04 0.104D-03 0.437D-03-0.274D-02
 Coeff:     -0.376D-02 0.958D-02 0.101D-01-0.433D-02-0.246D-01-0.241D-01
 Coeff:      0.230D-01 0.140D+00 0.118D+00-0.300D+00-0.218D+00 0.602D-01
 Coeff:      0.514D+00 0.702D+00
 Gap=     0.122 Goal=   None    Shift=    0.000
 Gap=     0.097 Goal=   None    Shift=    0.000
 RMSDP=2.41D-08 MaxDP=3.10D-06 DE=-1.06D-10 OVMax= 8.37D-06

 Cycle  30  Pass 1  IDiag  1:
 RMSU=  7.75D-09    CP:  1.00D+00  2.19D+00  2.10D+00  3.00D+00  3.00D+00
                    CP:  3.00D+00  1.93D+00  2.90D+00  1.35D+00
 E= -5224.86849693855     Delta-E=       -0.000000000101 Rises=F Damp=F
 DIIS: error= 1.60D-08 at cycle  30 NSaved=  20.
 NSaved=20 IEnMin=20 EnMin= -5224.86849693855     IErMin=20 ErrMin= 1.60D-08
 ErrMax= 1.60D-08  0.00D+00 EMaxC= 1.00D-01 BMatC= 2.51D-12 BMatP= 1.24D-11
 IDIUse=1 WtCom= 1.00D+00 WtEn= 0.00D+00
 Coeff-Com: -0.461D-04-0.183D-05 0.113D-03 0.346D-03-0.196D-04-0.484D-03
 Coeff-Com: -0.121D-02 0.296D-03 0.286D-02 0.224D-02-0.599D-02-0.984D-02
 Coeff-Com: -0.436D-02 0.387D-01 0.470D-01-0.537D-01-0.136D+00-0.477D-01
 Coeff-Com:  0.300D+00 0.868D+00
 Coeff:     -0.461D-04-0.183D-05 0.113D-03 0.346D-03-0.196D-04-0.484D-03
 Coeff:     -0.121D-02 0.296D-03 0.286D-02 0.224D-02-0.599D-02-0.984D-02
 Coeff:     -0.436D-02 0.387D-01 0.470D-01-0.537D-01-0.136D+00-0.477D-01
 Coeff:      0.300D+00 0.868D+00
 Gap=     0.122 Goal=   None    Shift=    0.000
 Gap=     0.097 Goal=   None    Shift=    0.000
 RMSDP=1.65D-08 MaxDP=2.47D-06 DE=-1.01D-10 OVMax= 3.71D-06

 Cycle  31  Pass 1  IDiag  1:
 RMSU=  7.78D-09    CP:  1.00D+00  2.21D+00  2.10D+00  3.00D+00  3.00D+00
                    CP:  3.00D+00  1.93D+00  3.00D+00  1.58D+00  1.74D+00
 E= -5224.86849693847     Delta-E=        0.000000000085 Rises=F Damp=F
 DIIS: error= 9.59D-09 at cycle  31 NSaved=  20.
 NSaved=20 IEnMin=19 EnMin= -5224.86849693855     IErMin=20 ErrMin= 9.59D-09
 ErrMax= 9.59D-09  0.00D+00 EMaxC= 1.00D-01 BMatC= 1.25D-12 BMatP= 2.51D-12
 IDIUse=1 WtCom= 1.00D+00 WtEn= 0.00D+00
 Coeff-Com: -0.224D-04 0.118D-04 0.197D-03 0.973D-04-0.309D-03-0.732D-03
 Coeff-Com:  0.527D-03 0.237D-02 0.801D-03-0.437D-02-0.577D-02-0.532D-02
 Coeff-Com:  0.163D-01 0.313D-01-0.133D-01-0.541D-01-0.688D-01 0.323D-01
 Coeff-Com:  0.386D+00 0.683D+00
 Coeff:     -0.224D-04 0.118D-04 0.197D-03 0.973D-04-0.309D-03-0.732D-03
 Coeff:      0.527D-03 0.237D-02 0.801D-03-0.437D-02-0.577D-02-0.532D-02
 Coeff:      0.163D-01 0.313D-01-0.133D-01-0.541D-01-0.688D-01 0.323D-01
 Coeff:      0.386D+00 0.683D+00
 Gap=     0.122 Goal=   None    Shift=    0.000
 Gap=     0.097 Goal=   None    Shift=    0.000
 RMSDP=5.58D-09 MaxDP=9.50D-07 DE= 8.46D-11 OVMax= 9.70D-07

 Error on total polarization charges =  0.04488
 SCF Done:  E(UM06) =  -5224.86849694     A.U. after   31 cycles
            NFock= 31  Conv=0.56D-08     -V/T= 2.0385
 <Sx>= 0.0000 <Sy>= 0.0000 <Sz>= 0.5000 <S**2>= 0.8429 S= 0.5454
 <L.S>=  0.00000000000    
 KE= 5.031379677997D+03 PE=-1.973762909555D+04 EE= 5.788153290388D+03
 SMD-CDS (non-electrostatic) energy       (kcal/mol) =      -3.19
 (included in total energy above)
 Annihilation of the first spin contaminant:
 S**2 before annihilation     0.8429,   after     0.7518
 Leave Link  502 at Tue Nov 14 12:50:37 2023, MaxMem=  4718592000 cpu:           43993.8 elap:            1231.8
 (Enter /ssoft/spack/external/gaussian/g16-C.01/avx2/g16/l601.exe)
 Copying SCF densities to generalized density rwf, IOpCl= 1 IROHF=0.

 **********************************************************************

            Population analysis using the SCF Density.

 **********************************************************************

 Orbital symmetries:
 Alpha Orbitals:
       Occupied  (A) (A) (A) (A) (A) (A) (A) (A) (A) (A) (A) (A)
                 (A) (A) (A) (A) (A) (A) (A) (A) (A) (A) (A) (A)
                 (A) (A) (A) (A) (A) (A) (A) (A) (A) (A) (A) (A)
                 (A) (A) (A) (A) (A) (A) (A) (A) (A) (A) (A) (A)
                 (A) (A) (A) (A) (A) (A) (A) (A) (A) (A) (A) (A)
                 (A) (A) (A) (A) (A) (A) (A) (A) (A) (A) (A) (A)
                 (A) (A) (A) (A) (A) (A) (A) (A) (A) (A) (A) (A)
                 (A) (A) (A) (A) (A) (A) (A) (A) (A) (A) (A) (A)
                 (A) (A) (A) (A) (A) (A) (A) (A) (A) (A) (A) (A)
                 (A) (A) (A) (A) (A) (A) (A) (A) (A) (A)
       Virtual   (A) (A) (A) (A) (A) (A) (A) (A) (A) (A) (A) (A)
                 (A) (A) (A) (A) (A) (A) (A) (A) (A) (A) (A) (A)
                 (A) (A) (A) (A) (A) (A) (A) (A) (A) (A) (A) (A)
                 (A) (A) (A) (A) (A) (A) (A) (A) (A) (A) (A) (A)
                 (A) (A) (A) (A) (A) (A) (A) (A) (A) (A) (A) (A)
                 (A) (A) (A) (A) (A) (A) (A) (A) (A) (A) (A) (A)
                 (A) (A) (A) (A) (A) (A) (A) (A) (A) (A) (A) (A)
                 (A) (A) (A) (A) (A) (A) (A) (A) (A) (A) (A) (A)
                 (A) (A) (A) (A) (A) (A) (A) (A) (A) (A) (A) (A)
                 (A) (A) (A) (A) (A) (A) (A) (A) (A) (A) (A) (A)
                 (A) (A) (A) (A) (A) (A) (A) (A) (A) (A) (A) (A)
                 (A) (A) (A) (A) (A) (A) (A) (A) (A) (A) (A) (A)
                 (A) (A) (A) (A) (A) (A) (A) (A) (A) (A) (A) (A)
                 (A) (A) (A) (A) (A) (A) (A) (A) (A) (A) (A) (A)
                 (A) (A) (A) (A) (A) (A) (A) (A) (A) (A) (A) (A)
                 (A) (A) (A) (A) (A) (A) (A) (A) (A) (A) (A) (A)
                 (A) (A) (A) (A) (A) (A) (A) (A) (A) (A) (A) (A)
                 (A) (A) (A) (A) (A) (A) (A) (A) (A) (A) (A) (A)
                 (A) (A) (A) (A) (A) (A) (A) (A) (A) (A) (A) (A)
                 (A) (A) (A) (A) (A) (A) (A) (A) (A) (A) (A) (A)
                 (A) (A) (A) (A) (A) (A) (A) (A) (A) (A) (A) (A)
                 (A) (A) (A) (A) (A) (A) (A) (A) (A) (A) (A) (A)
                 (A) (A) (A) (A) (A) (A) (A) (A) (A) (A) (A) (A)
                 (A) (A) (A) (A) (A) (A) (A) (A) (A) (A) (A) (A)
                 (A) (A) (A) (A) (A) (A) (A) (A) (A) (A) (A) (A)
                 (A) (A) (A) (A) (A) (A) (A) (A) (A) (A) (A) (A)
                 (A) (A) (A) (A) (A) (A) (A) (A) (A) (A) (A) (A)
                 (A) (A) (A) (A) (A) (A) (A) (A) (A) (A) (A) (A)
                 (A) (A) (A) (A) (A) (A) (A) (A) (A) (A) (A) (A)
                 (A) (A) (A) (A) (A) (A) (A) (A) (A) (A) (A) (A)
                 (A) (A) (A) (A) (A) (A) (A) (A) (A) (A) (A) (A)
                 (A) (A) (A) (A) (A) (A) (A) (A) (A) (A) (A) (A)
                 (A) (A) (A) (A) (A) (A) (A) (A) (A) (A) (A) (A)
                 (A) (A) (A) (A) (A) (A) (A) (A) (A) (A) (A) (A)
                 (A) (A) (A) (A) (A) (A) (A) (A) (A) (A) (A) (A)
                 (A) (A) (A) (A) (A) (A) (A) (A) (A) (A) (A) (A)
                 (A) (A) (A) (A) (A) (A) (A) (A) (A) (A) (A) (A)
                 (A) (A) (A) (A) (A) (A) (A) (A) (A) (A) (A) (A)
                 (A) (A) (A) (A) (A) (A) (A) (A) (A) (A) (A) (A)
                 (A) (A) (A) (A) (A) (A) (A) (A) (A) (A) (A) (A)
                 (A) (A) (A) (A) (A) (A) (A) (A) (A) (A) (A) (A)
                 (A) (A) (A) (A) (A) (A) (A) (A) (A) (A) (A) (A)
                 (A) (A) (A) (A) (A) (A) (A) (A) (A) (A) (A) (A)
                 (A) (A) (A) (A) (A) (A) (A) (A) (A) (A) (A) (A)
                 (A) (A) (A) (A) (A) (A) (A) (A) (A) (A) (A) (A)
                 (A) (A) (A) (A) (A) (A) (A) (A) (A) (A) (A) (A)
                 (A) (A) (A) (A) (A) (A) (A) (A) (A) (A) (A) (A)
                 (A) (A) (A) (A) (A) (A) (A) (A) (A) (A) (A) (A)
                 (A) (A) (A) (A) (A) (A) (A) (A) (A) (A) (A) (A)
                 (A) (A) (A) (A) (A) (A) (A) (A) (A) (A) (A) (A)
                 (A) (A) (A) (A) (A) (A) (A) (A) (A) (A) (A) (A)
                 (A) (A) (A) (A) (A) (A) (A) (A) (A) (A) (A) (A)
                 (A) (A) (A) (A) (A) (A) (A) (A) (A) (A) (A) (A)
                 (A) (A) (A) (A) (A) (A) (A) (A) (A) (A) (A) (A)
                 (A) (A) (A) (A) (A) (A) (A) (A) (A) (A) (A) (A)
                 (A) (A) (A) (A) (A) (A) (A) (A) (A) (A) (A) (A)
                 (A) (A) (A) (A) (A) (A) (A) (A) (A) (A) (A) (A)
                 (A) (A) (A) (A) (A) (A) (A) (A) (A) (A) (A) (A)
                 (A) (A) (A) (A) (A) (A) (A) (A) (A) (A) (A) (A)
                 (A) (A) (A) (A) (A) (A) (A) (A) (A) (A) (A) (A)
                 (A) (A) (A) (A) (A) (A) (A) (A) (A) (A) (A) (A)
                 (A) (A) (A) (A) (A) (A) (A) (A) (A) (A) (A) (A)
                 (A) (A) (A) (A) (A) (A) (A) (A) (A) (A) (A) (A)
                 (A) (A) (A) (A) (A) (A) (A) (A) (A) (A) (A) (A)
                 (A) (A) (A) (A) (A) (A) (A) (A) (A) (A) (A) (A)
                 (A) (A) (A) (A) (A) (A) (A) (A) (A) (A)
 Beta  Orbitals:
       Occupied  (A) (A) (A) (A) (A) (A) (A) (A) (A) (A) (A) (A)
                 (A) (A) (A) (A) (A) (A) (A) (A) (A) (A) (A) (A)
                 (A) (A) (A) (A) (A) (A) (A) (A) (A) (A) (A) (A)
                 (A) (A) (A) (A) (A) (A) (A) (A) (A) (A) (A) (A)
                 (A) (A) (A) (A) (A) (A) (A) (A) (A) (A) (A) (A)
                 (A) (A) (A) (A) (A) (A) (A) (A) (A) (A) (A) (A)
                 (A) (A) (A) (A) (A) (A) (A) (A) (A) (A) (A) (A)
                 (A) (A) (A) (A) (A) (A) (A) (A) (A) (A) (A) (A)
                 (A) (A) (A) (A) (A) (A) (A) (A) (A) (A) (A) (A)
                 (A) (A) (A) (A) (A) (A) (A) (A) (A)
       Virtual   (A) (A) (A) (A) (A) (A) (A) (A) (A) (A) (A) (A)
                 (A) (A) (A) (A) (A) (A) (A) (A) (A) (A) (A) (A)
                 (A) (A) (A) (A) (A) (A) (A) (A) (A) (A) (A) (A)
                 (A) (A) (A) (A) (A) (A) (A) (A) (A) (A) (A) (A)
                 (A) (A) (A) (A) (A) (A) (A) (A) (A) (A) (A) (A)
                 (A) (A) (A) (A) (A) (A) (A) (A) (A) (A) (A) (A)
                 (A) (A) (A) (A) (A) (A) (A) (A) (A) (A) (A) (A)
                 (A) (A) (A) (A) (A) (A) (A) (A) (A) (A) (A) (A)
                 (A) (A) (A) (A) (A) (A) (A) (A) (A) (A) (A) (A)
                 (A) (A) (A) (A) (A) (A) (A) (A) (A) (A) (A) (A)
                 (A) (A) (A) (A) (A) (A) (A) (A) (A) (A) (A) (A)
[...]
    34  H(1)               0.00019       0.83872       0.29927       0.27977
    35  H(1)               0.00007       0.33188       0.11842       0.11070
    36  H(1)               0.00017       0.76177       0.27182       0.25410
    37  C(13)              0.00080       0.89568       0.31960       0.29877
    38  H(1)              -0.00011      -0.51243      -0.18285      -0.17093
    39  H(1)              -0.00031      -1.39025      -0.49608      -0.46374
    40  H(1)              -0.00006      -0.24942      -0.08900      -0.08320
    41  H(1)              -0.00022      -0.99692      -0.35573      -0.33254
    42  H(1)              -0.00001      -0.04457      -0.01590      -0.01487
    43  H(1)              -0.00001      -0.02606      -0.00930      -0.00869
 --------------------------------------------------------
       Center         ----  Spin Dipole Couplings  ----
                      3XX-RR        3YY-RR        3ZZ-RR
 --------------------------------------------------------
     1   Atom       -0.052622      0.019564      0.033059
     2   Atom        0.028556     -0.002212     -0.026345
     3   Atom       -0.015992      0.005341      0.010650
     4   Atom        0.035823     -0.012514     -0.023309
     5   Atom       -0.014730      0.005107      0.009622
     6   Atom        0.035876     -0.021617     -0.014259
     7   Atom       -0.001659     -0.005254      0.006912
     8   Atom       -0.000568     -0.001081      0.001649
     9   Atom        0.000938     -0.000534     -0.000404
    10   Atom        0.000129     -0.000106     -0.000023
    11   Atom       -0.000003      0.000017     -0.000014
    12   Atom        0.000205     -0.000208      0.000003
    13   Atom       -0.000402      0.001617     -0.001215
    14   Atom       -0.002371      0.009423     -0.007052
    15   Atom       -0.038036      0.017676      0.020360
    16   Atom       -0.058016      0.155688     -0.097673
    17   Atom       -0.335945      1.192855     -0.856910
    18   Atom       -0.066443      0.069218     -0.002775
    19   Atom        0.001623      0.004091     -0.005715
    20   Atom       -0.004937      0.004479      0.000457
    21   Atom        0.002503      0.002640     -0.005144
    22   Atom       -0.002680      0.003061     -0.000381
    23   Atom        0.007557      0.003239     -0.010797
    24   Atom        0.008741     -0.002600     -0.006140
    25   Atom        0.003947     -0.001293     -0.002654
    26   Atom        0.005250     -0.002233     -0.003017
    27   Atom        0.005743     -0.002875     -0.002868
    28   Atom        0.011422     -0.005929     -0.005494
    29   Atom        0.097343     -0.046792     -0.050551
    30   Atom        0.005014     -0.000499     -0.004515
    31   Atom       -0.000766      0.001147     -0.000381
    32   Atom       -0.000269      0.000567     -0.000297
    33   Atom        0.000141      0.000759     -0.000900
    34   Atom        0.001514     -0.000369     -0.001144
    35   Atom        0.001265     -0.000583     -0.000682
    36   Atom        0.001868     -0.001124     -0.000744
    37   Atom        0.001082     -0.002951      0.001869
    38   Atom        0.007418     -0.000956     -0.006462
    39   Atom        0.002613     -0.002750      0.000137
    40   Atom        0.001072      0.000526     -0.001598
    41   Atom        0.001041      0.001274     -0.002315
    42   Atom       -0.003255     -0.004849      0.008103
    43   Atom        0.000472     -0.001318      0.000845
 --------------------------------------------------------
                        XY            XZ            YZ
 --------------------------------------------------------
     1   Atom        0.022464      0.025444      0.028318
     2   Atom       -0.006290     -0.014015     -0.035311
     3   Atom        0.004683      0.000402      0.022010
     4   Atom       -0.013279     -0.015219     -0.055634
     5   Atom        0.003157      0.008064      0.024849
     6   Atom       -0.019428     -0.012087     -0.044200
     7   Atom        0.002270     -0.006214      0.000895
     8   Atom        0.000922     -0.002506      0.000385
     9   Atom       -0.000797     -0.000947     -0.000407
    10   Atom       -0.000031     -0.000670      0.000314
    11   Atom       -0.000419     -0.000028      0.000285
    12   Atom       -0.000739     -0.000828      0.000023
    13   Atom       -0.002925      0.000675      0.000762
    14   Atom       -0.008835      0.001529      0.003734
    15   Atom       -0.003014      0.005151      0.015343
    16   Atom       -0.037500     -0.013934     -0.166516
    17   Atom        0.846870      1.248406     -1.843171
    18   Atom        0.026145     -0.018829     -0.077231
    19   Atom       -0.005148      0.006410     -0.015481
    20   Atom       -0.000373     -0.000062     -0.002661
    21   Atom        0.001369      0.000933     -0.007363
    22   Atom        0.002655     -0.001643     -0.001357
    23   Atom        0.007138     -0.003062     -0.012075
    24   Atom        0.008596     -0.000062     -0.008105
    25   Atom        0.003144     -0.000386     -0.000006
    26   Atom        0.001709      0.001251     -0.003735
    27   Atom        0.000859      0.002059      0.000556
    28   Atom       -0.002272      0.008657     -0.006989
    29   Atom        0.033654      0.011703      0.009909
    30   Atom       -0.004623      0.003666     -0.002867
    31   Atom       -0.001145      0.000718     -0.001583
    32   Atom        0.000252     -0.000068     -0.000911
    33   Atom        0.001848     -0.000841     -0.001087
    34   Atom        0.001752     -0.000706     -0.000556
    35   Atom        0.000377      0.000135     -0.000241
    36   Atom       -0.000422      0.001385     -0.000312
    37   Atom       -0.002765      0.005058     -0.005584
    38   Atom       -0.008851      0.000660     -0.001023
    39   Atom       -0.002959      0.005176     -0.002388
    40   Atom       -0.002786      0.001273     -0.001251
    41   Atom       -0.004869      0.003564     -0.004199
    42   Atom       -0.001823      0.006312     -0.005077
    43   Atom       -0.001146      0.002588     -0.001439
 --------------------------------------------------------


 ---------------------------------------------------------------------------------
              Anisotropic Spin Dipole Couplings in Principal Axis System
 ---------------------------------------------------------------------------------

       Atom             a.u.   MegaHertz   Gauss  10(-4) cm-1        Axes

              Baa    -0.0624    -8.377    -2.989    -2.794  0.9606 -0.1947 -0.1982
     1 C(13)  Bbb    -0.0027    -0.369    -0.132    -0.123  0.0267  0.7748 -0.6317
              Bcc     0.0652     8.746     3.121     2.917  0.2766  0.6015  0.7495
 
              Baa    -0.0543    -7.291    -2.602    -2.432  0.1790  0.5665  0.8044
     2 C(13)  Bbb     0.0221     2.962     1.057     0.988 -0.3020  0.8097 -0.5031
              Bcc     0.0323     4.329     1.545     1.444  0.9363  0.1529 -0.3160
 
              Baa    -0.0186    -2.496    -0.891    -0.832  0.8058 -0.4785  0.3490
     3 C(13)  Bbb    -0.0118    -1.586    -0.566    -0.529  0.5876  0.5727 -0.5715
              Bcc     0.0304     4.082     1.456     1.361  0.0736  0.6656  0.7427
 
              Baa    -0.0774   -10.387    -3.707    -3.465  0.1756  0.6612  0.7294
     4 C(13)  Bbb     0.0379     5.084     1.814     1.696 -0.2413  0.7472 -0.6193
              Bcc     0.0395     5.304     1.892     1.769  0.9544  0.0673 -0.2908
 
              Baa    -0.0200    -2.683    -0.957    -0.895  0.6095  0.5177 -0.6004
     5 C(13)  Bbb    -0.0137    -1.836    -0.655    -0.612  0.7754 -0.5472  0.3152
              Bcc     0.0337     4.518     1.612     1.507  0.1653  0.6576  0.7350
 
              Baa    -0.0672    -9.018    -3.218    -3.008  0.2135  0.7254  0.6544
     6 C(13)  Bbb     0.0253     3.396     1.212     1.133 -0.2518 -0.6063  0.7543
              Bcc     0.0419     5.622     2.006     1.875  0.9440 -0.3258  0.0532
 
              Baa    -0.0075    -4.013    -1.432    -1.339 -0.6091  0.7311 -0.3075
     7 H(1)   Bbb    -0.0027    -1.418    -0.506    -0.473  0.6408  0.6821  0.3523
              Bcc     0.0102     5.432     1.938     1.812 -0.4673 -0.0175  0.8839
 
              Baa    -0.0028    -1.479    -0.528    -0.493  0.7321 -0.5035  0.4588
     8 H(1)   Bbb    -0.0005    -0.275    -0.098    -0.092  0.3997  0.8629  0.3092
              Bcc     0.0033     1.755     0.626     0.585 -0.5516 -0.0430  0.8330
 
              Baa    -0.0015    -0.201    -0.072    -0.067  0.4512  0.6359  0.6261
     9 C(13)  Bbb    -0.0001    -0.010    -0.003    -0.003 -0.0707  0.7249 -0.6852
              Bcc     0.0016     0.211     0.075     0.070  0.8896 -0.2649 -0.3720
 
              Baa    -0.0007    -0.375    -0.134    -0.125  0.5781 -0.3559  0.7342
    10 H(1)   Bbb    -0.0001    -0.046    -0.016    -0.015  0.4293  0.8979  0.0973
              Bcc     0.0008     0.421     0.150     0.141  0.6939 -0.2589 -0.6719
 
              Baa    -0.0005    -0.261    -0.093    -0.087  0.5879  0.7080 -0.3913
    11 H(1)   Bbb    -0.0000    -0.019    -0.007    -0.006  0.5621 -0.0097  0.8270
              Bcc     0.0005     0.280     0.100     0.093 -0.5817  0.7061  0.4037
 
              Baa    -0.0011    -0.564    -0.201    -0.188  0.6584  0.5601  0.5028
    12 H(1)   Bbb    -0.0001    -0.071    -0.025    -0.024 -0.0935  0.7237 -0.6838
              Bcc     0.0012     0.635     0.227     0.212  0.7468 -0.4032 -0.5289
 
              Baa    -0.0030    -1.617    -0.577    -0.540  0.7043  0.5221 -0.4811
    13 H(1)   Bbb    -0.0007    -0.364    -0.130    -0.121  0.4185  0.2422  0.8754
              Bcc     0.0037     1.981     0.707     0.661 -0.5735  0.8178  0.0479
 
              Baa    -0.0103    -5.507    -1.965    -1.837 -0.5747 -0.3929  0.7178
    14 H(1)   Bbb    -0.0041    -2.210    -0.788    -0.737  0.6818  0.2553  0.6856
              Bcc     0.0145     7.716     2.753     2.574 -0.4527  0.8834  0.1212
 
              Baa    -0.0388    -4.175    -1.490    -1.393  0.9908  0.0820 -0.1075
    15 I(127) Bbb     0.0044     0.471     0.168     0.157 -0.1329  0.7360 -0.6638
              Bcc     0.0345     3.704     1.322     1.236  0.0247  0.6720  0.7401
 
              Baa    -0.1869   -25.070    -8.946    -8.362  0.2234  0.4458  0.8668
    16 Br(79) Bbb    -0.0539    -7.226    -2.578    -2.410  0.9704 -0.0178 -0.2409
              Bcc     0.2408    32.296    11.524    10.773 -0.0920  0.8950 -0.4365
 
              Baa    -2.8449   135.878    48.485    45.324 -0.5148  0.4430  0.7340
    17 Ni(61) Bbb     0.5635   -26.912    -9.603    -8.977  0.8561  0.2191  0.4681
              Bcc     2.2815  -108.966   -38.882   -36.347  0.0466  0.8693 -0.4920
 
              Baa    -0.0720    -2.779    -0.991    -0.927  0.9821 -0.0917  0.1647
    18 N(14)  Bbb    -0.0518    -1.999    -0.713    -0.667 -0.0880  0.5492  0.8310
              Bcc     0.1239     4.777     1.705     1.594  0.1667  0.8306 -0.5313
 
              Baa    -0.0173    -2.324    -0.829    -0.775 -0.1242  0.5616  0.8180
    19 C(13)  Bbb    -0.0018    -0.235    -0.084    -0.078  0.9005  0.4100 -0.1447
              Bcc     0.0191     2.559     0.913     0.853 -0.4166  0.7187 -0.5567
 
              Baa    -0.0050    -0.665    -0.237    -0.222  0.9981  0.0495  0.0358
    20 C(13)  Bbb    -0.0009    -0.115    -0.041    -0.038 -0.0541  0.4427  0.8950
              Bcc     0.0058     0.780     0.278     0.260 -0.0285  0.8953 -0.4446
 
              Baa    -0.0098    -1.310    -0.468    -0.437 -0.1221  0.5165  0.8475
    21 C(13)  Bbb     0.0026     0.347     0.124     0.116  0.9811 -0.0666  0.1820
              Bcc     0.0072     0.964     0.344     0.321  0.1504  0.8537 -0.4986
 
              Baa    -0.0040    -0.543    -0.194    -0.181  0.9102 -0.2820  0.3033
    22 C(13)  Bbb    -0.0007    -0.099    -0.035    -0.033 -0.1624  0.4306  0.8878
              Bcc     0.0048     0.643     0.229     0.214  0.3809  0.8574 -0.3462
 
              Baa    -0.0178    -2.386    -0.851    -0.796 -0.0390  0.5077  0.8607
    23 C(13)  Bbb     0.0011     0.144     0.051     0.048  0.7628 -0.5412  0.3538
              Bcc     0.0167     2.242     0.800     0.748  0.6455  0.6703 -0.3661
 
              Baa    -0.0141    -1.888    -0.674    -0.630 -0.2534  0.6776  0.6904
    24 C(13)  Bbb    -0.0001    -0.019    -0.007    -0.006  0.5046 -0.5163  0.6920
              Bcc     0.0142     1.907     0.680     0.636  0.8253  0.5237 -0.2111
 
              Baa    -0.0029    -0.387    -0.138    -0.129 -0.3636  0.7168 -0.5949
    25 C(13)  Bbb    -0.0026    -0.342    -0.122    -0.114 -0.2204  0.5543  0.8026
              Bcc     0.0054     0.729     0.260     0.243  0.9051  0.4230 -0.0435
 
              Baa    -0.0067    -0.904    -0.323    -0.302 -0.1708  0.6663  0.7259
    26 C(13)  Bbb     0.0011     0.146     0.052     0.049 -0.0910  0.7229 -0.6850
              Bcc     0.0056     0.758     0.270     0.253  0.9811  0.1830  0.0628
 
              Baa    -0.0035    -0.476    -0.170    -0.159 -0.1390 -0.5186  0.8437
    27 C(13)  Bbb    -0.0028    -0.371    -0.132    -0.124 -0.2039  0.8487  0.4880
              Bcc     0.0063     0.847     0.302     0.282  0.9691  0.1042  0.2237
 
              Baa    -0.0136    -1.828    -0.652    -0.610 -0.2039  0.6245  0.7539
    28 C(13)  Bbb    -0.0025    -0.342    -0.122    -0.114  0.4331  0.7482 -0.5026
              Bcc     0.0162     2.170     0.774     0.724  0.8780 -0.2240  0.4231
 
              Baa    -0.0602    -2.323    -0.829    -0.775 -0.1148  0.7599 -0.6399
    29 N(14)  Bbb    -0.0458    -1.765    -0.630    -0.589 -0.2063  0.6118  0.7636
              Bcc     0.1060     4.088     1.459     1.364  0.9717  0.2197  0.0865
 
              Baa    -0.0062    -0.832    -0.297    -0.277 -0.1668  0.3318  0.9285
    30 C(13)  Bbb    -0.0030    -0.402    -0.143    -0.134  0.5547  0.8101 -0.1898
              Bcc     0.0092     1.233     0.440     0.411  0.8152 -0.4834  0.3191
 
              Baa    -0.0014    -0.733    -0.262    -0.245  0.0116  0.5354  0.8445
    31 H(1)   Bbb    -0.0013    -0.692    -0.247    -0.231  0.9306  0.3033 -0.2051
              Bcc     0.0027     1.426     0.509     0.476 -0.3659  0.7883 -0.4947
 
              Baa    -0.0009    -0.472    -0.168    -0.157 -0.1310  0.5435  0.8291
    32 H(1)   Bbb    -0.0003    -0.161    -0.058    -0.054  0.9768 -0.0720  0.2016
              Bcc     0.0012     0.633     0.226     0.211  0.1693  0.8363 -0.5215
 
              Baa    -0.0015    -0.785    -0.280    -0.262 -0.4386  0.6603  0.6096
    33 H(1)   Bbb    -0.0014    -0.724    -0.258    -0.242  0.6667 -0.2158  0.7134
              Bcc     0.0028     1.509     0.539     0.503  0.6026  0.7193 -0.3456
 
              Baa    -0.0015    -0.800    -0.285    -0.267 -0.3035  0.7559  0.5800
    34 H(1)   Bbb    -0.0013    -0.675    -0.241    -0.225  0.4614 -0.4160  0.7836
              Bcc     0.0028     1.475     0.526     0.492  0.8337  0.5055 -0.2225
 
              Baa    -0.0009    -0.499    -0.178    -0.166 -0.1594  0.6693  0.7257
    35 H(1)   Bbb    -0.0004    -0.218    -0.078    -0.073 -0.1064  0.7191 -0.6867
              Bcc     0.0013     0.717     0.256     0.239  0.9815  0.1866  0.0434
 
              Baa    -0.0014    -0.751    -0.268    -0.250 -0.2877  0.4824  0.8273
    36 H(1)   Bbb    -0.0011    -0.603    -0.215    -0.201  0.3056  0.8649 -0.3981
              Bcc     0.0025     1.353     0.483     0.451  0.9076 -0.1383  0.3963
 
              Baa    -0.0067    -0.895    -0.319    -0.298 -0.0924  0.8073  0.5829
    37 C(13)  Bbb    -0.0028    -0.377    -0.135    -0.126  0.8197  0.3940 -0.4157
              Bcc     0.0095     1.272     0.454     0.424  0.5652 -0.4394  0.6982
 
              Baa    -0.0071    -3.763    -1.343    -1.255  0.3528  0.6284  0.6933
    38 H(1)   Bbb    -0.0060    -3.218    -1.148    -1.074 -0.4067 -0.5643  0.7185
              Bcc     0.0131     6.981     2.491     2.329  0.8427 -0.5354  0.0565
 
              Baa    -0.0041    -2.188    -0.781    -0.730  0.0984  0.9135  0.3947
    39 H(1)   Bbb    -0.0039    -2.100    -0.749    -0.701 -0.6658 -0.2344  0.7084
              Bcc     0.0080     4.288     1.530     1.430  0.7397 -0.3325  0.5851
 
              Baa    -0.0022    -1.162    -0.414    -0.387  0.0371  0.4508  0.8918
    40 H(1)   Bbb    -0.0020    -1.053    -0.376    -0.351  0.7080  0.6179 -0.3419
              Bcc     0.0042     2.215     0.790     0.739  0.7052 -0.6441  0.2963
 
              Baa    -0.0051    -2.735    -0.976    -0.912 -0.1306  0.4725  0.8716
    41 H(1)   Bbb    -0.0036    -1.938    -0.691    -0.646  0.7770  0.5948 -0.2060
              Bcc     0.0088     4.672     1.667     1.559 -0.6158  0.6503 -0.4449
 
              Baa    -0.0067    -3.591    -1.281    -1.198 -0.3540  0.8284  0.4342
    42 H(1)   Bbb    -0.0058    -3.119    -1.113    -1.040  0.8532  0.4762 -0.2128
              Bcc     0.0126     6.710     2.394     2.238  0.3830 -0.2951  0.8753
 
              Baa    -0.0021    -1.112    -0.397    -0.371 -0.3270  0.7013  0.6334
    43 H(1)   Bbb    -0.0018    -0.968    -0.346    -0.323  0.6983  0.6309 -0.3380
              Bcc     0.0039     2.080     0.742     0.694  0.6367 -0.3318  0.6961
 

 ---------------------------------------------------------------------------------

 No NMR shielding tensors so no spin-rotation constants.
 Leave Link  601 at Tue Nov 14 12:50:38 2023, MaxMem=  4718592000 cpu:              41.6 elap:               1.5
 (Enter /ssoft/spack/external/gaussian/g16-C.01/avx2/g16/l9999.exe)
 Unable to Open any file for archive entry.
 1\1\GINC-JST256\SP\UM06\def2TZVP\C19H19Br1I1N2Ni1(2)\GALLARAT\14-Nov-2
 023\0\\#p m06/Def2TZVP scrf=(smd,solvent=1,4-Dioxane)\\Cat1_TSOA_CfA_S
 PC\\0,2\C,0,0.226025,-1.199781,-0.99096\C,0,0.90659,-0.472939,-1.98809
 7\C,0,2.257942,-0.694406,-2.200195\C,0,2.968596,-1.672907,-1.482188\C,
 0,2.248169,-2.47187,-0.588012\C,0,0.889059,-2.269669,-0.361212\H,0,0.3
 79547,0.293085,-2.559998\H,0,2.785251,-0.08675,-2.942078\C,0,4.446304,
 -1.841789,-1.667876\H,0,4.787385,-2.830132,-1.328\H,0,4.741661,-1.7222
 57,-2.721249\H,0,5.002351,-1.084775,-1.086998\H,0,2.761867,-3.277266,-
 0.054314\H,0,0.340645,-2.921081,0.323299\I,0,-2.037543,-1.508522,-1.23
 7956\Br,0,-1.946028,-0.099408,2.507149\Ni,0,-0.602652,-0.078248,0.5297
 33\N,0,-0.470662,1.792281,-0.313301\C,0,-1.487198,2.510389,-0.812804\C
 ,0,-1.236484,3.709338,-1.493919\C,0,0.066821,4.162311,-1.632043\C,0,1.
 099058,3.438328,-1.045717\C,0,0.790607,2.256396,-0.374024\C,0,1.803856
 ,1.488673,0.388765\C,0,3.158586,1.821489,0.386982\C,0,4.018133,1.11212
 9,1.217212\C,0,3.498983,0.117259,2.03299\C,0,2.131723,-0.182462,1.9772
 09\N,0,1.325664,0.487645,1.143077\C,0,-2.880605,2.019969,-0.610393\H,0
 ,-2.075207,4.275871,-1.901568\H,0,0.278964,5.090782,-2.166796\H,0,2.12
 3397,3.805062,-1.090897\H,0,3.539767,2.620991,-0.246727\H,0,5.084504,1
 .347853,1.237592\H,0,4.139887,-0.439316,2.718728\C,0,1.538455,-1.24399
 6,2.84008\H,0,-2.976069,1.542219,0.377073\H,0,-3.135418,1.257681,-1.36
 1965\H,0,-3.596833,2.847581,-0.697515\H,0,1.437159,-2.181022,2.271773\
 H,0,0.527381,-0.953267,3.163553\H,0,2.176065,-1.441619,3.711776\\Versi
 on=ES64L-G16RevC.01\State=2-A\HF=-5224.8684969\S2=0.842871\S2-1=0.\S2A
 =0.751797\RMSD=5.580e-09\Dipole=3.4225747,1.9475376,-2.0934814\Quadrup
 ole=6.5301371,8.5833539,-15.113491,-2.2922469,13.2415634,-10.3374601\P
 G=C01 [X(C19H19Br1I1N2Ni1)]\\@
 The archive entry for this job was punched.


 THE FIRST MORNING OF CREATION WROTE WHAT THE LAST DAWN OF
 RECKONING SHALL READ. -- OMAR KHAYYAM
 Job cpu time:       0 days 12 hours 16 minutes 31.8 seconds.
 Elapsed time:       0 days  0 hours 20 minutes 37.9 seconds.
 File lengths (MBytes):  RWF=    960 Int=      0 D2E=      0 Chk=     59 Scr=      1
 Normal termination of Gaussian 16 at Tue Nov 14 12:50:39 2023.
